# vtk DataFile Version 3.0
d-2__ created by libgimli-v1.5.0-1-g5991b6ac
ASCII
DATASET UNSTRUCTURED_GRID
POINTS 257 double
25.5	-0.25	0
25.643267391024	-0.375	0
25.690940791558	-0.19094079155751	0
28.625	-0.27380702240065	0
28.625	-0.13804348840204	0
28.518663902413	-0.18940103023301	0
28.458333333333	-0.087886572211468	0
28.416666666667	0	0
28.375	-0.13804348840204	0
28.291666666667	-0.087886572211468	0
28.333333333333	0	0
28.25	0	0
26.083333333333	0	0
26.041666666667	-0.13804348840203	0
26.125	-0.087886572211466	0
26.166666666667	0	0
26	0	0
26.708333333333	-0.13804348840203	0
26.666666666667	0	0
26.625	-0.087886572211466	0
26.208333333333	-0.07357428207177	0
26.75	0	0
26.791666666667	-0.087886572211464	0
26.333333333333	0	0
26.25	0	0
26.291666666667	-0.087886572211468	0
27.166666666667	0	0
27.208333333333	-0.07357428207177	0
27.25	0	0
26.416666666667	0	0
26.375	-0.13804348840204	0
26.458333333333	-0.087886572211468	0
27.291666666667	-0.087886572211468	0
27.333333333333	0	0
27.625	-0.13804348840204	0
27.518663902413	-0.18940103023301	0
27.625	-0.27380702240065	0
26.583333333333	0	0
28.916666666667	0	0
28.833333333333	0	0
28.875	-0.13804348840204	0
26.833333333333	0	0
26.875	-0.07357428207177	0
29.98747163413	-0.5056358037932	0
30.050519698408	-0.25547676721966	0
29.843533331918	-0.29816134131379	0
29.458333333333	-0.087886572211464	0
29.404607252882	-0.15094638411797	0
29.541666666667	-0.13804348840203	0
26.5	0	0
27.791666666667	-0.087886572211468	0
27.833333333333	0	0
27.75	0	0
27.231336097587	-0.18940103023302	0
27.125	-0.13804348840204	0
25.705488373266	-0.59091608366499	0
26.007921013115	-0.8717186506847	0
25.91135296792	-0.47048281487414	0
30.166666666667	0	0
30.208333333333	-0.087886572211464	0
30.25	0	0
27	0	0
26.916666666667	0	0
26.958333333333	-0.13804348840203	0
30.791666666667	-0.087886572211468	0
30.833333333333	0	0
30.75	0	0
27.041666666667	-0.087886572211464	0
27.083333333333	0	0
30.083333333333	0	0
30.125	-0.07357428207177	0
28.541666666667	-0.073574282071767	0
27.375	-0.13804348840204	0
27.416666666667	0	0
27.5	0	0
27.458333333333	-0.087886572211468	0
28.583333333333	0	0
28.666666666667	0	0
28.226291378505	-0.21877391554365	0
28.432011579996	-0.40775209656411	0
30.148002764253	-0.18940103023303	0
30.208717134119	-0.38392172835888	0
30.291666666667	-0.13804348840203	0
28.208333333333	-0.07357428207177	0
28.166666666667	0	0
28.125	-0.072182208352023	0
27.875	-0.13804348840204	0
26.237940586216	-0.15094638411797	0
27.916666666667	0	0
27.708333333333	-0.07357428207177	0
28.083333333333	0	0
28	0	0
28.041666666667	-0.13804348840203	0
26.190375288162	-0.21877391554366	0
27.958333333333	-0.087886572211464	0
26.541666666667	-0.073574282071767	0
26.571273919549	-0.15094638411796	0
26.317063962986	-0.25702488420529	0
27.541666666667	-0.073574282071767	0
28.5	0	0
29.583333333333	0	0
29.625	-0.087886572211466	0
28.791666666667	-0.087886572211468	0
26.203594889612	-0.40391444725954	0
27.583333333333	0	0
27.666666666667	0	0
28.75	0	0
28.958333333333	-0.087886572211464	0
29	0	0
29.041666666667	-0.13804348840203	0
28.708333333333	-0.07357428207177	0
29.083333333333	0	0
29.125	-0.087886572211466	0
29.166666666667	0	0
29.208333333333	-0.13804348840203	0
29.25	0	0
28.165334880767	-0.15260258505374	0
29.291666666667	-0.087886572211464	0
27.731336097587	-0.18940103023302	0
29.5	0	0
29.416666666667	0	0
29.333333333333	0	0
29.375	-0.07357428207177	0
29.666666666667	0	0
28.086941669094	-0.2859797646022	0
27.958333333333	-0.18219221742147	0
29.125	-0.18219221742148	0
29.228873378537	-0.27753669533404	0
29.708333333333	-0.07357428207177	0
29.041666666667	-0.23876614697008	0
28.958333333333	-0.18219221742147	0
29.833333333333	0	0
29.875	-0.13804348840204	0
29.916666666667	0	0
29.791666666667	-0.087886572211468	0
29.75	0	0
29.958333333333	-0.087886572211464	0
30	0	0
29.483730629652	-0.25702488420531	0
30.333333333333	0	0
30.375	-0.087886572211466	0
29.369620976373	-0.40603607246707	0
29.604159114629	-0.34842263547806	0
31.124752694808	-0.11296503030675	0
31	0	0
30.958333333333	-0.087886572211468	0
30.041666666667	-0.13804348840203	0
30.416666666667	0	0
30.458333333333	-0.07357428207177	0
30.875	-0.13804348840204	0
30.583333333333	0	0
30.541666666667	-0.13804348840203	0
30.625	-0.087886572211466	0
30.5	0	0
30.43533056908	-0.18940103023302	0
30.916666666667	0	0
30.385963434616	-0.36114994877356	0
30.708333333333	-0.07357428207177	0
30.666666666667	0	0
29.636111778917	-0.20065391017952	0
30.999752694808	-0.25100851870879	0
28.731336097587	-0.18940103023302	0
26.851997235747	-0.18940103023303	0
30.737940586216	-0.15094638411797	0
26.523708621495	-0.21877391554365	0
27.133853031742	-0.25547676721968	0
26.949480301592	-0.25547676721966	0
27.041666666667	-0.52911283384145	0
27.041666666667	-0.18219221742147	0
29.357041954828	-0.21877391554366	0
29.737940586216	-0.15094638411797	0
30.690375288162	-0.21877391554366	0
29.958333333333	-0.18219221742147	0
25.875	-0.11303967622539	0
25.75	0	0
26.650397296319	-0.25702488420526	0
27.292050467453	-0.38392172835888	0
27.414390113348	-0.63321254312708	0
27.469144028345	-0.36097200963104	0
27.848127708251	-0.28948918465343	0
28.848127708251	-0.28948918465343	0
28.726596951268	-0.4234584073117	0
29.731548923005	-0.26700761442393	0
30.817063962986	-0.25702488420529	0
26.031958747178	-0.33325463579056	0
26.523689393121	-0.44776195923934	0
29.184065504659	-0.43422319923747	0
29.545209981036	-0.61464357222601	0
30.552290248164	-0.29580321144285	0
31.25	0	0
26.800529041383	-0.37028063139366	0
29.130694908432	-0.28024272799092	0
28.907115884997	-0.43487734236883	0
31.5	-0.5	0
31.5	-0.25	0
31.356886217184	-0.375	0
31.308843572405	-0.19115642759521	0
31.5	0	0
27.681768476189	-0.55823447719905	0
29.041897355025	-0.3545575021244	0
28.950100433703	-0.28398118611486	0
29.746371622197	-0.43057135368151	0
29.045779100149	-0.5143168838031	0
27.615347366628	-0.83560735755964	0
27.971649595913	-0.56775148091581	0
28.235269600634	-0.41546210057925	0
28.346412380513	-0.73751448832674	0
28.007726950717	-0.98664640296265	0
26.322202955504	-0.72835150504623	0
29.798122080496	-0.68908130839227	0
30.703430397599	-0.40445925111313	0
30.914859484231	-0.44990795630246	0
29.247599241801	-0.70334449364573	0
31.053928463665	-0.58159990549132	0
31.221377875989	-0.67457110982012	0
31.225195424337	-0.49586438948828	0
30.530720924191	-0.4852517756918	0
30.323984230706	-0.57992151527177	0
25.84485407481	-1.2957460393421	0
25.743909551686	-0.8528010586154	0
30.746070739038	-0.72060716412098	0
29.604860290622	-0.8788438191921	0
29.043947453281	-1.1807973577914	0
29.54268225478	-1.3246684327942	0
29.849430697053	-0.99522786547226	0
30.043693421774	-0.75311160759413	0
28.849047319116	-0.69970565535729	0
31.000856094841	-0.87446921301307	0
31.5	-1	0
25.845623228308	-0.30002188546398	0
30.512369350266	-0.71824350459	0
30	-1.6666666666667	0
30.051778272566	-1.3024535658708	0
25.5	0	0
27.680522574649	-1.2514855461386	0
27.375	-1.6666666666667	0
27.75	-1.6666666666667	0
31.174325422113	-0.32450830281231	0
25.5	-0.5	0
26.747329141204	-0.71351083399284	0
25.5	-0.75	0
26.348572023727	-1.2023161679924	0
27.179597305363	-1.0673000334922	0
29.25	-1.6666666666667	0
25.5	-1	0
30.75	-1.6666666666667	0
31.013091550828	-1.3141602648437	0
30.625304590967	-1.106556793762	0
30.375	-1.6666666666667	0
30.189043391347	-0.96114657873573	0
28.064690440023	-1.391571216678	0
28.426745644615	-1.201505510398	0
25.5	-1.6666666666667	0
27	-1.6666666666667	0
26.25	-1.6666666666667	0
28.5	-1.6666666666667	0
31.5	-1.6666666666667	0
CELLS 429 1716
3	0	1	2	
3	3	4	5	
3	6	7	8	
3	9	10	11	
3	12	13	14	
3	14	15	12	
3	16	13	12	
3	17	18	19	
3	20	15	14	
3	7	10	8	
3	21	17	22	
3	23	24	25	
3	26	27	28	
3	29	30	31	
3	23	30	29	
3	28	32	33	
3	34	35	36	
3	19	18	37	
3	38	39	40	
3	22	41	21	
3	41	22	42	
3	43	44	45	
3	18	17	21	
3	46	47	48	
3	31	49	29	
3	50	51	52	
3	53	27	54	
3	55	56	57	
3	58	59	60	
3	61	62	63	
3	64	65	66	
3	67	68	61	
3	67	61	63	
3	69	70	58	
3	4	71	5	
3	72	73	33	
3	5	6	8	
3	74	73	75	
3	73	72	75	
3	76	4	77	
3	78	79	8	
3	80	81	82	
3	83	84	85	
3	50	86	51	
3	25	87	30	
3	86	88	51	
3	52	89	50	
3	90	91	92	
3	93	87	14	
3	94	92	91	
3	95	49	31	
3	9	8	10	
3	84	83	11	
3	19	95	96	
3	91	88	94	
3	25	30	23	
3	9	11	83	
3	97	30	87	
3	98	74	75	
3	99	71	76	
3	100	48	101	
3	33	32	72	
3	99	7	6	
3	41	42	62	
3	102	40	39	
3	71	99	6	
3	97	93	103	
3	104	34	105	
3	39	106	102	
3	74	98	104	
3	38	107	108	
3	107	109	108	
3	35	75	72	
3	106	110	102	
3	34	98	35	
3	28	27	32	
3	111	112	113	
3	109	111	108	
3	59	82	60	
3	113	114	115	
3	116	9	83	
3	114	117	115	
3	50	89	118	
3	119	120	46	
3	119	48	100	
3	110	106	77	
3	120	121	122	
3	89	52	105	
3	101	123	100	
3	124	92	125	
3	54	26	68	
3	114	126	127	
3	101	128	123	
3	129	109	130	
3	131	132	133	
3	134	131	135	
3	48	119	46	
3	115	117	121	
3	136	137	133	
3	47	138	48	
3	60	82	139	
3	82	140	139	
3	141	142	138	
3	143	144	145	
3	122	47	46	
3	146	137	136	
3	113	112	114	
3	134	132	131	
3	147	140	148	
3	149	65	64	
3	150	151	152	
3	150	153	151	
3	148	154	151	
3	147	148	153	
3	65	149	155	
3	59	58	70	
3	155	145	144	
3	82	81	156	
3	145	155	149	
3	146	69	137	
3	157	158	152	
3	154	140	82	
3	147	139	140	
3	101	48	159	
3	149	160	145	
3	102	110	161	
3	150	152	158	
3	42	22	162	
3	157	163	64	
3	5	71	6	
3	4	76	71	
3	85	84	90	
3	116	83	85	
3	96	31	164	
3	49	95	37	
3	15	20	24	
3	25	20	87	
3	14	13	93	
3	25	24	20	
3	165	166	167	
3	63	168	67	
3	54	68	67	
3	17	162	22	
3	63	62	42	
3	35	98	75	
3	34	104	98	
3	26	54	27	
3	63	42	162	
3	88	86	94	
3	125	94	86	
3	105	34	89	
3	118	89	34	
3	77	4	110	
3	161	110	4	
3	111	109	112	
3	126	112	109	
3	47	117	169	
3	120	122	46	
3	38	40	107	
3	130	107	40	
3	121	117	122	
3	117	114	169	
3	80	70	146	
3	123	128	135	
3	134	128	170	
3	159	48	138	
3	134	135	128	
3	163	152	171	
3	158	157	66	
3	154	148	140	
3	151	153	148	
3	69	146	70	
3	172	44	146	
3	9	78	8	
3	161	40	102	
3	90	92	85	
3	116	78	9	
3	92	94	125	
3	5	79	3	
3	164	31	30	
3	19	37	95	
3	173	16	174	
3	164	175	96	
3	17	19	96	
3	53	165	176	
3	53	32	27	
3	118	86	50	
3	175	17	96	
3	176	177	178	
3	118	36	179	
3	78	116	124	
3	180	3	181	
3	169	114	127	
3	114	112	126	
3	134	170	132	
3	133	132	136	
3	44	80	146	
3	146	136	172	
3	82	59	80	
3	152	151	171	
3	64	66	157	
3	80	59	70	
3	64	163	149	
3	170	101	159	
3	136	132	172	
3	85	92	116	
3	124	116	92	
3	97	164	30	
3	166	168	63	
3	14	87	20	
3	87	93	97	
3	117	47	122	
3	47	169	138	
3	101	170	128	
3	142	182	159	
3	132	45	172	
3	149	163	183	
3	31	96	95	
3	162	166	63	
3	184	93	13	
3	97	185	164	
3	156	154	82	
3	141	127	186	
3	142	141	187	
3	44	172	45	
3	152	163	157	
3	163	171	183	
3	103	93	184	
3	53	72	32	
3	154	188	151	
3	189	144	143	
3	185	175	164	
3	175	190	162	
3	118	179	86	
3	125	179	124	
3	109	107	130	
3	126	129	191	
3	161	180	40	
3	127	126	191	
3	169	141	138	
3	141	169	127	
3	125	86	179	
3	180	181	192	
3	193	194	195	
3	196	194	197	
3	149	183	160	
3	143	145	160	
3	167	176	165	
3	162	17	175	
3	198	178	177	
3	72	53	176	
3	118	34	36	
3	185	97	103	
3	126	109	129	
3	186	191	199	
3	180	130	40	
3	130	180	200	
3	161	4	3	
3	129	199	191	
3	138	142	159	
3	45	182	201	
3	130	200	129	
3	192	202	199	
3	202	186	199	
3	129	200	199	
3	142	187	201	
3	191	186	127	
3	180	192	200	
3	199	200	192	
3	180	161	3	
3	142	201	182	
3	54	67	168	
3	203	204	198	
3	79	5	8	
3	78	124	205	
3	182	170	159	
3	151	188	171	
3	185	190	175	
3	204	206	205	
3	201	43	45	
3	43	81	44	
3	207	206	204	
3	57	56	208	
3	44	81	80	
3	209	201	187	
3	35	72	178	
3	57	208	103	
3	13	16	173	
3	183	210	211	
3	141	212	187	
3	45	170	182	
3	213	214	215	
3	205	79	78	
3	216	156	217	
3	45	132	170	
3	196	197	189	
3	218	56	219	
3	178	198	36	
3	188	156	216	
3	220	211	210	
3	57	103	184	
3	204	179	198	
3	165	53	54	
3	221	222	223	
3	209	224	225	
3	43	217	81	
3	226	212	202	
3	214	227	228	
3	211	160	183	
3	210	171	188	
3	226	192	181	
3	193	215	214	
3	3	79	181	
3	205	206	79	
3	186	212	141	
3	212	186	202	
3	173	229	13	
3	167	177	176	
3	72	176	178	
3	206	226	181	
3	213	227	214	
3	217	230	216	
3	196	195	194	
3	231	232	223	
3	227	213	220	
3	206	181	79	
3	187	212	221	
3	173	174	2	
3	13	229	184	
3	174	233	2	
3	234	235	236	
3	196	189	143	
3	233	0	2	
3	160	237	143	
3	237	195	196	
3	1	0	238	
3	173	2	229	
3	177	203	198	
3	198	179	36	
3	239	190	185	
3	35	178	36	
3	192	226	202	
3	195	215	193	
3	188	216	210	
3	220	210	216	
3	213	237	211	
3	154	156	188	
3	124	179	204	
3	221	212	222	
3	240	219	55	
3	54	168	165	
3	196	143	237	
3	195	237	215	
3	55	1	238	
3	167	166	190	
3	2	1	229	
3	1	55	57	
3	190	166	162	
3	204	205	124	
3	241	208	56	
3	242	167	239	
3	223	222	243	
3	156	81	217	
3	160	211	237	
3	213	215	237	
3	183	171	210	
3	228	193	214	
3	219	244	218	
3	56	55	219	
3	184	229	57	
3	57	229	1	
3	220	213	211	
3	245	246	247	
3	230	220	216	
3	220	247	227	
3	248	247	232	
3	228	227	246	
3	55	238	240	
3	249	230	217	
3	247	249	232	
3	166	165	168	
3	221	209	187	
3	43	225	217	
3	209	43	201	
3	247	246	227	
3	190	239	167	
3	207	204	203	
3	208	185	103	
3	242	203	177	
3	207	250	251	
3	240	244	219	
3	252	218	244	
3	224	209	221	
3	217	225	249	
3	43	209	225	
3	241	242	239	
3	167	242	177	
3	253	242	241	
3	56	218	241	
3	212	226	222	
3	249	225	224	
3	234	250	207	
3	239	185	208	
3	231	223	243	
3	224	232	249	
3	252	254	218	
3	241	218	254	
3	253	241	254	
3	239	208	241	
3	206	207	251	
3	224	221	223	
3	223	232	224	
3	248	245	247	
3	234	207	203	
3	250	255	251	
3	251	226	206	
3	255	243	222	
3	249	247	230	
3	220	230	247	
3	203	242	234	
3	235	242	253	
3	255	222	251	
3	226	251	222	
3	232	231	248	
3	245	256	246	
3	228	246	256	
3	242	235	234	
3	234	236	250	
3	255	250	236	
CELL_TYPES 429
5 5 5 5 5 5 5 5 5 5 5 5 5 5 5 5 5 5 5 5 5 5 5 5 5 5 5 5 5 5 5 5 5 5 5 5 5 5 5 5 5 5 5 5 5 5 5 5 5 5 5 5 5 5 5 5 5 5 5 5 5 5 5 5 5 5 5 5 5 5 5 5 5 5 5 5 5 5 5 5 5 5 5 5 5 5 5 5 5 5 5 5 5 5 5 5 5 5 5 5 5 5 5 5 5 5 5 5 5 5 5 5 5 5 5 5 5 5 5 5 5 5 5 5 5 5 5 5 5 5 5 5 5 5 5 5 5 5 5 5 5 5 5 5 5 5 5 5 5 5 5 5 5 5 5 5 5 5 5 5 5 5 5 5 5 5 5 5 5 5 5 5 5 5 5 5 5 5 5 5 5 5 5 5 5 5 5 5 5 5 5 5 5 5 5 5 5 5 5 5 5 5 5 5 5 5 5 5 5 5 5 5 5 5 5 5 5 5 5 5 5 5 5 5 5 5 5 5 5 5 5 5 5 5 5 5 5 5 5 5 5 5 5 5 5 5 5 5 5 5 5 5 5 5 5 5 5 5 5 5 5 5 5 5 5 5 5 5 5 5 5 5 5 5 5 5 5 5 5 5 5 5 5 5 5 5 5 5 5 5 5 5 5 5 5 5 5 5 5 5 5 5 5 5 5 5 5 5 5 5 5 5 5 5 5 5 5 5 5 5 5 5 5 5 5 5 5 5 5 5 5 5 5 5 5 5 5 5 5 5 5 5 5 5 5 5 5 5 5 5 5 5 5 5 5 5 5 5 5 5 5 5 5 5 5 5 5 5 5 5 5 5 5 5 5 5 5 5 5 5 5 5 5 5 5 5 5 5 5 5 5 5 5 5 5 5 5 5 5 5 5 5 5 5 5 5 5 5 5 5 5 5 5 5 5 5 5 5 5 5 5 5 5 5 5 5 5 5 5 
CELL_DATA 429
SCALARS Coverage double 1
LOOKUP_TABLE default
1.6158100118948 2.5495548216408 3.0634502205744 3.2517312750068 2.5117082418511 2.8135313685628 2.9496546927285 2.7856199544767 2.6946051574143 3.1688487928961 2.8067087381785 3.0621717995151 3.3313817927233 2.8014436508887 2.8741236983429 3.3521015193298 2.5562424059993 2.9643533839193 3.1418653194009 3.2844258525634 2.9847298891693 2.2350579470719 3.2448691790809 2.6061807092647 3.2100624837266 3.4407725040318 2.6251417548777 1.3402015033001 3.1082277845324 3.3712469672075 2.8151067700266 3.4646695460802 2.9482984629413 2.9989753219812 2.7324723424667 3.0822276642418 2.8316918966069 3.1266703102165 2.8339829197654 3.1322079059627 2.449103284215 2.3434331562767 3.0173363300605 3.0295391052026 2.4782767375757 3.1522034128838 3.0280904879326 3.4352293372645 2.3921815206709 2.8884187436018 2.7467289890416 2.9539683008996 3.2834657044889 2.6509783958279 3.3961085981783 2.6678203034435 2.8646145402931 2.3094202334637 2.7170913879633 3.3179720797876 2.9106534930741 3.0366900592964 3.3645817415572 3.1119394164652 2.9994171885236 2.9016731093576 2.0027685680954 3.1392407920922 3.4023834371598 3.1909728821223 3.5304478221193 3.0489342747625 2.6896046283336 3.0719772572202 2.7350692110613 2.9809654245703 3.171492667644 3.457776290383 2.6511363946652 3.2189439292643 2.7818785135752 3.2424053510802 2.8582268155096 3.1678116378355 3.1864676977303 3.493433262786 3.0582639195373 3.4438877797043 3.0987187591291 2.6397462221883 2.9861197317293 2.6061393461819 3.0444123156399 2.6920460377133 3.0479614585969 3.3656291298299 2.6867855359341 3.4067462510118 3.3727881134428 2.5607233795677 3.0913978275666 2.7887225573279 2.2670510064054 2.1910537013447 2.8044157703924 2.8796352688992 2.9211228918326 2.9434284472677 2.8848473594315 2.4368137776087 2.6380934868918 3.1052964806388 2.551694185769 3.1990652141854 2.5849789033682 2.8538833934056 2.8050087474373 2.232335261793 2.3801398909913 3.381095859863 2.6029347824377 2.5712085928683 2.9688503490915 2.7251762311335 2.0188975506354 2.8836908646379 2.7734224260355 2.7290898479732 2.296075836119 2.7751874394327 2.963641724471 3.0952983250478 2.9257389932538 2.4870835896682 3.2074603204172 3.059396870577 2.5362481431392 2.3094393219691 2.682015158018 2.2525946600882 2.7526587950396 2.9572197627915 2.6176572339624 2.9414778600419 2.6253551998677 2.9025023895906 2.8926197998513 2.6906913173061 2.996615477928 2.7658481498446 3.074656354877 2.8871109538829 3.1398749090796 2.8721051788082 3.0322394880921 2.7770901811201 2.8646092144076 2.9469119104652 3.0844562077822 2.8188109855784 3.0339470818967 2.809133507218 2.7205347062126 3.3577758621053 2.777617347844 2.5515655062552 3.0280105429812 2.2340051864023 2.8311882548455 2.7183130319715 2.8354774038669 2.9185991733404 2.5907126636295 2.7121303559812 2.764487266462 3.0114990720639 2.6871695077381 2.8021875140945 2.3775883016684 2.5149919679717 2.8597337820634 2.7040409896122 2.3299021826717 2.5805027545058 2.3500952830384 2.7586536690752 2.7885606667389 2.4416499957319 2.0841030151472 2.5192649912464 2.5544323950585 2.3005942496302 2.6704539419218 2.7082548630217 2.7207458211117 2.9330596327564 2.5453886832938 2.7570884936901 2.517556798018 2.3453972168169 2.4246449201687 2.6568867917533 2.2908867537505 2.7736791107264 2.7007296983116 2.8718973369256 2.7155641430312 2.2988784997313 2.5663122827569 2.5397492410238 2.2092877492918 3.0032990223837 2.539066791612 2.9950718460567 2.4170655246836 2.4966549266425 2.0785382513986 2.6384579831574 2.5307640258649 2.0592568946455 2.0791819265582 2.3917385015413 2.2413079507511 2.0710142974015 2.4323280101713 2.3708523616442 2.0510687644367 1.9223163885487 2.8738750371752 2.3749126589096 2.5017078995971 2.1318534401954 2.2932039237385 2.6280136656364 2.4960184602423 2.8608474064779 2.5113858188833 2.5740430377922 2.4915215680948 2.3814174991147 2.4161313036579 2.5928145462253 2.2204998479912 1.3762180229755 1.5797054673977 1.9967704799304 2.0656831374283 2.1744956676183 2.4463963107522 2.0087689475304 2.599802716079 2.6824608082645 1.9040598900912 2.614410654378 2.283192471772 2.6107878801709 2.4860190158324 2.647570885902 2.3992096406782 2.3976739682977 2.2619870810839 2.5420785133756 2.1478037962318 2.1418315973918 2.4116172445062 2.0552708774774 2.3351158244261 2.3154803124383 2.2803357250565 2.4813960743761 2.2474452960599 2.6963049211565 1.8532468735332 2.5259574598114 2.3522196106122 2.5966590029124 2.170164487744 2.0828395579384 1.9571318251245 2.1283578598532 2.1371790421246 1.7034877363986 1.3401616419373 2.3327383257683 1.8807587626846 2.4715866006539 1.5872035264969 2.4572707441618 1.7648733352448 1.9091210087751 2.4425280631863 1.3354199414985 2.2721547721818 1.8499048539161 2.5330008643014 1.7574328414461 0.97661654188445 2.1880313342038 1.9901386970049 1.5666483931186 1.7378021907054 2.1218025714731 2.4884547707561 1.2007865032789 1.5218272035396 1.9316584603339 1.8421387462625 1.0291575430835 1.8320034318851 1.9633090434041 2.0190628828067 1.2842587402561 2.2236998783583 2.025999593626 2.0158088823649 1.973624061489 2.1005073682064 1.9791515211854 2.3570806722338 1.8645861656838 1.2346353518729 1.626253725077 1.5369019464977 0.82699898427087 1.257386761327 2.0141050264459 1.6882348339335 2.0856398390878 1.9985354525787 1.8605019551784 0.83571072020732 1.9647905623775 1.66620643646 1.880552103439 1.6288772861472 1.4440847125817 1.9742383443676 1.790774893135 2.2820308463376 1.8512357357362 2.3969230060463 1.9788852766618 1.3499666709062 1.8463727768634 1.6135706913533 1.5562198865311 2.2118007517828 2.2658839842155 1.4755805253046 1.1111475601548 2.5216209849253 1.8465173956769 1.5214742367306 1.3543919532682 2.1525086501296 1.7324629022278 1.4724990794529 2.3455820387694 2.1796160674772 1.1472021460409 1.5867416667133 0.95197225596514 1.9607128220285 1.7421126313726 1.473776825826 1.9094406126451 1.0789589198296 0.88068516149786 1.1311275432047 1.7517648490001 1.6564680006101 1.4387274820752 0.73182415273902 1.4761899416661 1.1227414694625 0.78441284451957 0.89140788318733 1.1906583234075 1.452875363713 1.0460205160893 2.4426843149044 1.6733668272086 1.7221560560829 1.9140066832808 0.90838814965945 1.8826022661211 1.6551627410361 1.6718834102258 1.5568518949144 1.1980893748623 0.95604876395951 0.64695879410314 1.4877763935474 1.4992288123033 1.7306533402616 1.2372746140856 1.6795973170427 0.92472861045651 0.92834694632574 1.5718531718667 1.356647823227 1.1757824618127 1.6006663470552 0.77704119299501 1.1567581338046 0.58590899273396 0.74085828357703 0.69785750130924 1.2955992332186 1.4559868441719 1.2619202945589 1.0674285270745 0.65705357812342 1.3694384140584 0.98389489904287 1.5697207740219 0.87225661511369 1.1959434234213 1.2346090716645 1.3058304535869 0.85690744567482 1.0406523026775 1.3780605677848 0.67732853672688 0.57266014616281 0.62896363242487 1.010214027362 0.94082703985222 0.84957541113091 
SCALARS Marker double 1
LOOKUP_TABLE default
0 1 2 3 4 5 6 7 8 9 10 11 12 13 14 15 16 17 18 19 20 21 22 23 24 25 26 27 28 29 30 31 32 33 34 35 36 37 38 39 40 41 42 43 44 45 46 47 48 49 50 51 52 53 54 55 56 57 58 59 60 61 62 63 64 65 66 67 68 69 70 71 72 73 74 75 76 77 78 79 80 81 82 83 84 85 86 87 88 89 90 91 92 93 94 95 96 97 98 99 100 101 102 103 104 105 106 107 108 109 110 111 112 113 114 115 116 117 118 119 120 121 122 123 124 125 126 127 128 129 130 131 132 133 134 135 136 137 138 139 140 141 142 143 144 145 146 147 148 149 150 151 152 153 154 155 156 157 158 159 160 161 162 163 164 165 166 167 168 169 170 171 172 173 174 175 176 177 178 179 180 181 182 183 184 185 186 187 188 189 190 191 192 193 194 195 196 197 198 199 200 201 202 203 204 205 206 207 208 209 210 211 212 213 214 215 216 217 218 219 220 221 222 223 224 225 226 227 228 229 230 231 232 233 234 235 236 237 238 239 240 241 242 243 244 245 246 247 248 249 250 251 252 253 254 255 256 257 258 259 260 261 262 263 264 265 266 267 268 269 270 271 272 273 274 275 276 277 278 279 280 281 282 283 284 285 286 287 288 289 290 291 292 293 294 295 296 297 298 299 300 301 302 303 304 305 306 307 308 309 310 311 312 313 314 315 316 317 318 319 320 321 322 323 324 325 326 327 328 329 330 331 332 333 334 335 336 337 338 339 340 341 342 343 344 345 346 347 348 349 350 351 352 353 354 355 356 357 358 359 360 361 362 363 364 365 366 367 368 369 370 371 372 373 374 375 376 377 378 379 380 381 382 383 384 385 386 387 388 389 390 391 392 393 394 395 396 397 398 399 400 401 402 403 404 405 406 407 408 409 410 411 412 413 414 415 416 417 418 419 420 421 422 423 424 425 426 427 428 
SCALARS Resistivity double 1
LOOKUP_TABLE default
136.92628789065 89.566510241351 97.159584208108 60.246568997481 112.79994068604 118.25393032332 114.9882288373 70.87521074018 106.2030728747 96.360418915377 68.223660285942 61.410803490316 36.711118441292 88.746906881859 78.497121821684 187.39204292793 74.364436698338 66.207685198757 63.07449283932 56.737761712638 61.244889899261 101.00371962548 77.63503453965 92.486206737633 93.100494502151 55.968279252767 63.364182455464 199.36242236642 54.629204103822 73.901086181401 55.852823320355 64.191603640019 77.156357409489 76.234460455705 69.457076766677 138.81497203611 88.942434380688 62.857210520587 81.889793236532 72.160189865677 93.200173613207 67.107666138125 83.540643171062 59.921122680066 78.651101289713 52.110465143941 86.101186553768 134.15392452769 97.164051805789 74.430531696601 78.14806037401 74.723600191561 75.580161269782 71.740535724779 48.250199795691 69.920613953103 61.587533237049 90.529667896185 58.711476796763 49.076750610366 115.13767887331 155.28542081725 96.279476256677 61.465138732933 62.971957173747 65.521192461895 112.60644904146 112.98658701964 54.969258636632 70.827622929968 88.358830605868 90.487862385173 67.505838263258 82.431832897715 67.722566469725 89.729892386614 53.330186291582 69.569606558997 55.529087300849 55.058775145077 64.565145081888 149.80877345222 83.943286034253 101.82876459061 104.7643843105 106.99128185385 172.49358489031 123.75872191225 147.2268957826 74.815978263188 39.011492355071 98.549339976655 146.59204598677 103.74523098765 40.902018713098 45.42495216702 90.3436961062 264.19470741676 45.79380761512 86.232024124456 67.005013495848 78.866468702172 98.404189655993 72.110997481388 116.99258067144 72.259240897975 59.227193922035 48.477102820774 95.774324113335 59.691815586075 47.890778792715 52.398696680342 82.857281279569 100.49658576941 70.531120835297 63.26498723718 77.40635228113 77.746222377726 73.353838883458 111.78697561912 37.549123801044 80.190934564987 91.831098172951 98.307823995422 72.184930435951 85.317837296139 39.714681650075 70.279900488151 45.555517096643 71.278252396353 58.628653688671 101.02095921438 74.13579167432 86.901710836912 64.742899452652 101.53275354603 81.151427760622 103.0460859504 77.300196385886 86.12534046245 75.63725621431 53.78215937785 72.746847065656 70.635704443114 59.923736012955 80.668849013343 40.754429902105 75.826558818805 54.614566932237 68.07922118583 112.55620447678 92.046199005937 90.24817987479 90.526963320169 66.120571504068 81.284248358308 119.46270154578 127.54373911298 79.05739765584 92.663472435552 196.63352793297 124.89742591684 74.34973068657 157.51067188112 91.910071808488 87.271225259285 93.207849867447 52.454293738052 34.036950437516 87.254066032302 80.578680590601 87.287560359023 79.083471787364 75.688255083727 81.651535208509 104.59133213761 68.31023309024 72.196959229797 109.70885831709 92.209213047519 65.92608555196 76.817108824577 88.785867952445 72.964166410708 83.521361698489 86.526587155518 75.564233900468 79.037524998988 105.95100174353 89.63732107002 75.781321097971 132.2405853897 108.54143511223 78.898160432952 72.209554482831 48.139932342654 76.90332506168 73.237055923328 58.980149918878 55.816162434762 42.562681886656 63.488574793006 54.097422663185 101.954696463 65.925802210322 80.562416697216 74.206925815095 98.189092666347 79.499771331565 94.02093487492 98.99700142795 142.04486223742 96.005345713708 114.84626567167 96.631955100508 78.834701877532 60.851958739308 78.790838108954 81.84731631751 105.97630288572 110.48203415629 78.555124127361 117.93007359701 122.80720473717 86.788262769165 43.767330919204 62.134676584595 115.89479681646 111.73687406373 79.41384216906 70.854502147743 101.35960895938 88.350381315079 82.34164000418 84.077468435485 96.79036035783 108.56510019121 98.608001143848 107.90797919209 95.55727247066 103.49870673427 78.630635752398 145.78573675735 119.06407752344 101.78875392061 71.016376337047 75.166831059419 92.324529060219 78.776403457744 120.46349752169 91.598955772018 83.795421656751 125.08266896611 98.430837944167 125.30526302552 102.36883160281 115.83409688172 96.230124214636 118.61530530666 90.62180672918 106.51260032847 114.0233530106 149.59387648523 143.83524156213 122.11377819359 127.80732531192 116.20654610315 131.66817424299 134.22290473357 109.4926188802 108.69836008118 66.679184943961 160.62689152294 99.88607795731 93.989969061489 97.0371377073 71.043835726793 104.34166429219 144.68803876547 118.3756221563 97.600694699711 199.1853234188 196.93369333693 78.323644295956 159.2833129135 73.455759733274 160.32122360469 87.177544380465 91.125775899626 154.21352528229 94.453201953077 144.79797688294 106.58412744529 115.61865729845 81.994972655424 93.439411265274 251.32261338119 100.56238917657 99.357800731454 114.54075729444 132.7711390919 122.53532800657 72.102816278049 328.22033162016 218.00219413688 117.85418414551 195.91724730783 179.29046995401 85.061978494563 81.878511914516 173.08651489106 145.48238145599 136.51877789617 136.95557125969 141.86052579371 158.85161134573 97.563121150809 115.6082367789 85.236398009103 199.9143237806 161.88189507366 151.01349628219 109.48713248312 345.1058170709 160.74331601442 159.78993479266 208.69499262399 96.929617870525 106.98269466044 111.91763952583 320.49187913755 84.904021674777 125.70124863342 87.11181437138 107.39825047031 156.95427368986 106.35212088348 156.54213821019 104.70784227878 128.92882154568 79.965824210821 172.88649821732 128.35828650813 100.18797543625 122.07152708792 117.52692291501 84.463600646875 103.13681401759 275.70445165596 224.28761041495 71.962105399504 92.650384807028 121.06395182996 176.65871896032 96.417974920558 127.80920474409 171.97943755683 88.127320720718 110.527370485 225.61467818857 170.38176521827 376.91543668882 101.78276656989 95.635917373205 127.69231339427 77.112157743512 163.7014040283 261.25147274652 225.76128382531 126.16272600713 141.12637208763 130.50137246272 249.4942397375 152.83935688046 190.34409614272 297.79298078324 211.6440120278 200.92968502406 189.29810412782 267.30042691491 78.761059742464 202.84346879466 162.56810756175 151.11621747709 219.02381726088 126.66979418996 205.92680106501 151.52822004762 189.29685076337 302.57627584129 244.0253698402 282.04126000667 240.20042519205 195.75785283488 177.37736916445 231.6582008753 159.01666910282 294.49337157175 259.77735602702 264.82774721042 230.65691766041 298.55311682722 163.19952941327 376.98121697761 273.68338027015 293.14928555573 291.08841580134 306.26911349226 210.12178850909 255.4085484724 298.16788488365 312.58343696763 278.61303577516 255.49079700036 341.7991685443 259.22515623296 394.92281738981 217.19470223716 187.56404491445 252.32648432566 308.99354904832 360.17949981748 308.6921251643 326.59211580075 244.34894163613 231.6247546661 302.44977093666 325.72301980192 343.47904379755 
SCALARS Resistivity_(log10) double 1
LOOKUP_TABLE default