# vtk DataFile Version 3.0
d-2__ created by libgimli-v1.5.0-1-g5991b6ac
ASCII
DATASET UNSTRUCTURED_GRID
POINTS 803 double
8.3333333333333	0	0
8.5	-0.29429712828708	0
8.6666666666667	0	0
21.166666666667	-0.35154628884587	0
21.333333333333	0	0
21	0	0
-0.13949540192174	-0.65832226163824	0
0.26765699968102	-1.1941152153012	0
0.50098922076846	-0.451860121227	0
11.833333333333	-0.28867513459481	0
11.666666666667	-0.84084908820295	0
12	-0.57735026571174	0
-1	0	0
-0.82347194173878	-1.6006755924119	0
21.666666666667	0	0
21.5	-0.55217395360815	0
1.1666666666667	-0.35154628884586	0
1.3333333333333	0	0
1	0	0
1.5	-0.55217395360814	0
23.61842901153	-0.60378553647188	0
24.166666666667	-0.55217395360814	0
23.833333333333	-0.35154628884586	0
1.6666666666667	0	0
8.1666666666667	-0.35154628884586	0
1.8333333333333	-0.35154628884586	0
2	0	0
4.8333333333333	-0.35154628884586	0
5.1666666666667	-0.55217395360814	0
5	0	0
2.6666666666667	0	0
2.3333333333333	0	0
2.5	-0.35154628884586	0
2.1666666666667	-0.29429712828708	0
8.4079889429861	-0.75760412093209	0
9.0144333430414	-1.1439190584088	0
8.8333333333333	-0.55217395360814	0
13	0	0
13.166666666667	-0.29429712828707	0
13.333333333333	0	0
3.1666666666667	-0.35154628884586	0
3.5	-0.55217395360814	0
3.3333333333333	0	0
16	0	0
16.166666666667	-0.29429712828708	0
16.333333333333	0	0
3.6666666666667	0	0
3.8333333333333	-0.29429712828707	0
4	0	0
4.3333333333333	0	0
4.1666666666667	-0.35154628884586	0
27	0	0
26.833333333333	-0.35154628884586	0
27.166666666667	-0.55217395360814	0
3	0	0
16.5	-0.35154628884586	0
16.666666666667	0	0
2.8333333333333	-0.55217395360814	0
13.5	-0.35154628884586	0
13.666666666667	0	0
4.5	-0.55217395360814	0
4.6666666666667	0	0
3.9253443903472	-0.75760412093208	0
29.833333333333	-0.29429712828707	0
30.166666666667	-0.35154628884587	0
30	0	0
35.905165514021	-0.87509566217462	0
36.166666666667	-0.35154628884586	0
35.661339523067	-0.61041034021497	0
5.5	-0.29429712828708	0
5.8333333333333	-0.35154628884586	0
5.6666666666667	0	0
5.3333333333333	0	0
27.333333333333	0	0
27.5	-0.35154628884586	0
35.833333333333	-0.29429712828708	0
6.1666666666667	-0.55217395360814	0
6.3333333333333	0	0
6	0	0
37	0	0
37.166666666667	-0.35154628884586	0
37.333333333333	0	0
10.741322276319	-0.75760412093209	0
11.175685896383	-1.113902458684	0
11.166666666667	-0.55217395360814	0
6.5	-0.35154628884586	0
30.795730030397	-1.0103532830333	0
31.229185900173	-0.87228466782526	0
31.000045632922	-0.57199295442671	0
31.666666666667	0	0
31.833333333333	-0.55217395360814	0
32	0	0
40	0	0
40.166666666667	-0.35154628884586	0
40.333333333333	0	0
6.8333333333333	-0.29429712828708	0
7.1666666666667	-0.28872883340808	0
7	0	0
7.2211097499487	-1.0538354750778	0
7.0053271435993	-0.61041034021496	0
6.7615011526461	-0.87509566217461	0
9.5	-0.29429712828707	0
9.3333333333333	0	0
9.1666666666667	-0.28872883340808	0
7.3333333333333	0	0
39.666666666667	0	0
39.833333333333	-0.29429712828708	0
13.674580112811	-1.7184248716052	0
14.353791495618	-2.0265268011931	0
13.958469529133	-1.3940906823913	0
7.6666666666667	0	0
7.8333333333333	-0.55217395360814	0
8	0	0
12.994672856401	-0.61041034021496	0
5.5920110570139	-0.75760412093209	0
5.8348685364776	-1.5356869134354	0
9.8333333333333	-0.35154628884586	0
9.5718321806872	-0.87509566217461	0
10.166666666667	-0.55217395360814	0
7.33337923226	-0.57364431858631	0
10.36828810089	-1.6552861219901	0
6.6666666666667	0	0
36.666666666667	0	0
36.833333333333	-0.29429712828708	0
37.5	-0.55217395360814	0
24.333333333333	0	0
24	0	0
12.503171480364	-0.86507900392268	0
12.328351644367	-1.416191408927	0
12.778890250051	-1.0538354750778	0
11.5	-0.28867513459481	0
19.666666666667	0	0
19.833333333333	-0.35154628884586	0
20	0	0
9.6666666666667	0	0
20.5	-0.28872883340808	0
20.666666666667	0	0
20.333333333333	0	0
20.905165514021	-0.87509566217461	0
10.5	-0.35154628884586	0
10.333333333333	0	0
9.3280061897341	-0.61041034021496	0
10.833333333333	-0.29429712828707	0
10.666666666667	0	0
22.833333333333	-0.55217395360814	0
22.5	-0.72876886968591	0
22.915493514149	-1.1101467813362	0
5.2020787936337	-1.0219070688786	0
18.833333333333	-0.29429712828707	0
18.925344390347	-0.75760412093207	0
19.166666666667	-0.35154628884587	0
22.666666666667	0	0
22.5	-0.35154628884586	0
13.833333333333	-0.55217395360814	0
14	0	0
16.833333333333	-0.55217395360814	0
0	0	0
14.166666666667	-0.35154628884586	0
14.333333333333	0	0
14.5	-0.55217395360814	0
14.833333333333	-0.35154628884586	0
14.666666666667	0	0
15	0	0
15.166666666667	-0.55217395360814	0
15.333333333333	0	0
2.0948344859795	-0.87509566217461	0
2.2850956781966	-0.60378553647187	0
12	0	0
11.666666666667	0	0
22.166666666667	-0.95506458788032	0
22.166666666667	-0.55217395360814	0
21.833333333333	-0.7287688696859	0
15.5	-0.35154628884586	0
15.666666666667	0	0
17	0	0
20.833333333333	-0.29429712828707	0
20.661339523067	-0.61041034021495	0
9	0	0
14.166666666667	-0.72876886968591	0
17.333333333333	0	0
17.166666666667	-0.35154628884586	0
18	0	0
17.666666666667	0	0
17.833333333333	-0.55217395360814	0
17.5	-0.29429712828708	0
16.258677723681	-0.75760412093209	0
12.833333333333	-0.28872883340808	0
18.166666666667	-0.35154628884586	0
18.333333333333	0	0
17.407988942986	-0.7576041209321	0
19	0	0
19.333333333333	0	0
18.666666666667	0	0
12.166666666667	-0.28867513459481	0
12.333333333333	0	0
15.833333333333	-0.55217395360814	0
20.166666666667	-0.55217395360814	0
19.5	-0.55217395360815	0
7.5	-0.28867513958836	0
23.5	-0.29429712828708	0
21.833333333333	-0.35154628884586	0
22	0	0
26.592011057014	-0.7576041209321	0
22.333333333333	0	0
23.934922518609	-1.0280995368212	0
25.166666666667	-0.35154628884587	0
25.5	-0.55217395360815	0
25.333333333333	0	0
23.166666666667	-0.35154628884586	0
23	0	0
26.666666666667	0	0
26.5	-0.29429712828708	0
23.666666666667	0	0
23.333333333333	0	0
26.166666666667	-0.55217395360814	0
26.333333333333	0	0
26	0	0
24.761501152646	-0.87509566217461	0
24.951762344863	-0.60378553647187	0
24.5	-0.35154628884586	0
33.5	-0.35154628884586	0
33.238498847354	-0.8750956621746	0
33.833333333333	-0.55217395360815	0
24.666666666667	0	0
28.166666666667	-0.35154628884587	0
28.5	-0.55217395360815	0
28.333333333333	0	0
25	0	0
24.833333333333	-0.29429712828707	0
27.761501152646	-0.87509566217461	0
27.951762344863	-0.60378553647187	0
29.333333333333	0	0
29	0	0
29.166666666667	-0.55217395360814	0
25.833333333333	-0.35154628884586	0
29.947484315848	-0.62869436758688	0
30.409983486194	-0.76921735210505	0
34.166666666667	-0.72876886968591	0
34.166666666667	-0.35154628884586	0
25.666666666667	0	0
35.445556916718	-1.0538354750779	0
35.333287434407	-0.57364431858632	0
29.666666666667	0	0
29.5	-0.28872883340808	0
26.834868536478	-1.5356869134355	0
30.833333333333	-0.28872883340808	0
30.671365010853	-0.57276869068256	0
27.666666666667	0	0
38.204670056311	-1.4270134762662	0
38.601589185276	-1.0280995368212	0
38.094834485979	-0.87509566217463	0
28	0	0
27.833333333333	-0.29429712828707	0
36.662074300781	-0.56642454030296	0
28.666666666667	0	0
31.746636025369	-1.1187108767801	0
28.833333333333	-0.35154628884586	0
33	0	0
33.166666666667	-0.29429712828707	0
33.333333333333	0	0
34.5	-0.55217395360814	0
34.731644951192	-0.92970615345739	0
35.666666666667	0	0
35.5	-0.28872883340809	0
30.333333333333	0	0
31	0	0
31.166666666667	-0.28867513958836	0
31.333333333333	0	0
38.285095678197	-0.60378553647188	0
37.833333333333	-0.35154628884586	0
30.666666666667	0	0
30.5	-0.29429712828708	0
36.5	-0.28872883340808	0
33.666666666667	0	0
36.41952417611	-0.77749898599357	0
38.5	-0.35154628884586	0
38.833333333333	-0.55217395360815	0
38.666666666667	0	0
29.657657699283	-0.83081436360664	0
40.168201869811	-1.5356869134355	0
40.5	-0.55217395360814	0
39.925344390347	-0.75760412093211	0
32.994672856401	-0.61041034021495	0
31.5	-0.35154628884586	0
43	0	0
42.666666666667	0	0
42.833333333333	-0.29429712828707	0
43.404176293252	-0.42323554094762	0
35.88498281448	-1.5034830799843	0
41.166666666667	-0.29429712828708	0
41.074655609653	-0.75760412093211	0
41.5	-0.55217395360814	0
41	0	0
41.333333333333	0	0
34.333333333333	0	0
32.166666666667	-0.35154628884586	0
32.333333333333	0	0
39.5	-0.55217395360814	0
39.333333333333	0	0
36.500673817427	-1.6307728168531	0
40.833333333333	-0.35154628884586	0
34.666666666667	0	0
35.333333333333	0	0
35.166666666667	-0.28867513958836	0
35	0	0
36.333333333333	0	0
36	0	0
12.333333329009	-0.57732068917697	0
37.666666666667	0	0
7.9035368819631	-1.2622568520387	0
28.737635378193	-1.2311528923644	0
29.212976838479	-1.0424777721347	0
28.833333333333	-0.7287688696859	0
12.66662076774	-0.57364431858631	0
38.166666666667	-0.29429712828707	0
38.333333333333	0	0
12.5	-0.28867513958836	0
39	0	0
39.166666666667	-0.35154628884586	0
20.347766676375	-1.1439190584087	0
19.833333333333	-0.7287688696859	0
40.666666666667	0	0
42.5	-0.35154628884586	0
10	0	0
18.5	-0.55217395360815	0
41.666666666667	0	0
23.428167819313	-0.87509566217462	0
42	0	0
42.166666666667	-0.29429712828707	0
42.333333333333	0	0
42.744785246826	-0.77776727251482	0
41.833333333333	-0.35154628884586	0
38	0	0
41.542494325991	-1.1832128457714	0
2.6015891852757	-1.0280995368212	0
13.258353909981	-1.6064355191183	0
4.8333333333333	-0.72876886968591	0
15.5	-0.7287688696859	0
15.8687454603	-1.0219070688786	0
16.501535203144	-1.5356869134354	0
14.833333333333	-0.72876886968591	0
12.666666666667	0	0
17.797921206366	-1.0219070688786	0
18.166666666667	-0.7287688696859	0
36.905165514021	-0.87509566217463	0
32.666666666667	0	0
32.5	-0.55217395360814	0
34.833333333333	-0.28867513459481	0
34.999999995676	-0.57732068917696	0
34	0	0
35.169838147031	-0.8650790039227	0
42.285095678197	-0.60378553647188	0
41.877780449001	-0.80261564071807	0
13.238498847354	-0.87509566217461	0
11.333333333333	0	0
11.697267761921	-1.4738194081615	0
12.166692603518	-0.86967323340335	0
3.1666666666667	-0.72876886968591	0
11	0	0
18.535412126967	-1.0219070688787	0
25.833333333333	-0.7287688696859	0
25.268255851942	-1.0280995368211	0
28.268255851942	-1.0280995368211	0
[...]
CELL_DATA 1424
SCALARS Coverage double 1
LOOKUP_TABLE default
2.8523514670635 3.1065438152136 2.0203634914641 2.5896722784614 1.8128118166877 2.96928396343 2.8066997043148 2.3048492998489 2.734730612355 2.588670372785 2.8035694990173 2.4062221752596 2.8352670918776 2.6339178961903 2.6707033711652 2.5946485747063 2.4726060580737 3.226684775314 2.6026123822095 3.212389737116 3.2571377690782 3.2275176690498 2.9268130692735 2.9522033899402 2.9437122198624 2.9319312584693 2.9415933317542 2.8477372945254 2.5207464467828 2.9260265300114 2.9796096265149 2.6424780390293 2.7507244100613 2.9516241662607 2.8744014212823 2.7283381398854 2.9579852756377 3.3041229932013 2.4906109605552 2.7077131685444 2.6428076600353 3.0162687940407 3.1365423276006 3.2407045111494 2.8105291438553 2.4470231515034 2.8462743639011 3.2649972222562 3.2544666632856 2.1453335770913 2.9656461178449 3.0483282517044 2.6934449595582 2.3598761829083 2.7897684273149 2.6193305567319 2.4928424212227 2.4223050197269 2.864608419116 2.9297001395752 3.3185442641355 2.8541728544485 3.1148449929317 2.3626808667623 2.6095247388276 3.0795116418937 2.9761972026249 2.9005075041371 2.6541264408511 2.7733433291203 2.9174968263198 2.7017673690706 2.807998566653 2.5926253089416 2.4022659102615 2.7218863414207 2.8196240331665 2.7303711744548 2.4380910599543 3.0068483233475 2.7572445842022 2.5706494076154 2.7105319627946 3.0704005520043 2.5821450295009 2.7655117002487 3.0118436147815 2.8493519135023 2.8367910534463 2.3190456098227 2.7730584490286 2.4158569074483 3.0547402801546 2.6264845272367 2.5058856189478 2.9319909263315 2.3495385903618 3.0266504793173 2.7270297271894 3.0234680581579 2.6371163743211 3.0736289667562 2.6468809846686 3.0043857279902 2.8290687393289 2.6931760432214 2.8050239524457 2.7443933852287 2.8221112496676 3.028709471524 2.6392309730394 3.2223179877657 3.2618203316986 3.0535904967692 2.6400349856666 2.8531777572337 3.1402738719373 2.7767951043852 3.1455980956367 2.8661354916045 2.7422151373299 2.870228057172 2.9283679162491 2.7793944832885 2.7121788243945 3.060754807546 2.7256928250686 2.7919628969462 2.8929245158169 2.8041778896024 3.3073683479734 2.7312700337221 3.0293328999568 3.2530151881783 2.6359099240346 2.9064567679067 2.8623155300282 2.9432198703526 3.1888988304475 2.8962460440991 3.1637261107011 3.0978545346164 2.7154739501313 2.7092494842109 3.070016335186 2.9321145999279 3.389270203457 2.9752538885247 2.7378654823313 3.1879602925664 2.8383939664411 2.7372846886501 2.9941002610424 3.2109703071668 2.775629885031 3.182060015508 2.5825571538381 3.0404670099718 2.9685800258991 2.8256752190353 2.5751260268595 2.8051817389199 3.0923300108099 2.3195718428518 3.3911597268498 2.9824173214346 2.7399439649443 3.0632464428862 2.6083294642753 2.8539402978642 3.2134712110671 3.1569834184842 2.9015344641219 3.1980620588313 2.6476364945513 2.9002356130241 2.6536950822612 3.1752559183001 3.2132290631071 3.3971183196086 2.5963431787554 3.0854913160814 2.9528015515131 3.0853481022963 2.9689986170705 2.869169031771 2.7036732110491 2.7532897685443 2.7328815442741 2.4023038831182 2.7673194345795 2.7371043050372 2.8678882966598 2.9126430244618 3.0793975209069 2.2736062140279 2.4311822965961 2.7818631326838 2.4756382686797 2.9739373115243 2.9240615933553 2.825650902593 3.181487434458 2.8943409141191 2.3131037364939 2.5072939772831 2.6214054237556 3.0436379521478 2.716821954674 2.9502317450179 3.1983080871944 2.9425635741671 2.6509462358394 3.1181504109933 2.6471450520748 2.9510951823951 2.7732769970598 2.6821227203703 2.7340872638971 2.4393568528826 2.8547859283256 2.5557484852495 2.5478918922706 2.6506889613443 2.4835975467229 2.8222568736934 2.8290855778106 3.0698612231925 2.871539853085 2.7268068892892 3.0521142361767 3.1045657675371 2.5460813121196 2.8567842731376 2.5159662006846 2.8761181250418 2.6992909292074 3.2266849025195 2.9158824867816 2.9526115674991 2.8416974269798 2.6797601301155 2.7040004848556 2.8645199450919 2.6752903286269 2.9701310573978 2.8526101013428 2.1627008134568 2.7183378593204 2.7379085890118 2.9534969906688 2.5887254940028 2.711580401618 2.6235374346736 2.7745710005562 3.0734133288487 2.6477907205997 2.8792471648795 2.3087850158798 2.4618290928156 3.1472083292749 2.3141607449831 2.6262109110548 2.7700464275272 2.5676476125557 2.7969879965674 2.526735589166 2.6059396548911 2.7078531907119 2.2715270066234 2.5441736467028 2.6417192786027 2.5317504536983 2.5496407769963 2.4711090600065 2.6398006375996 2.7504008000609 2.7984436659773 2.6260056248024 2.6306280117907 2.7841372671072 3.2251130476574 2.879876560018 2.533587296358 2.6593461036585 2.6407798311696 2.7546045281007 2.7020977595481 2.7769774112348 2.8310874197246 2.6733099170837 2.7833085506245 2.8050911732697 3.4061300080908 2.8523767123436 2.8991028999085 2.7460984799571 2.8026093357936 2.8367432550309 3.4030788336656 2.8646657566772 3.0086432244191 2.7483905198088 2.5690833089745 2.9513376285396 2.7611627821737 2.8195249502123 3.3961321645215 2.9333417986116 2.9345756641092 2.9254353184032 3.3502331132357 2.6706035022192 2.7906478340217 2.5979303559867 2.3981561088188 2.8991128432814 2.6056584666887 2.6734795614211 3.0907238580092 2.7060440217281 3.0179728607149 2.8132330410553 2.9926191442053 2.3076348250193 2.4057009733026 2.5690983250759 2.5481572926714 2.6370272062988 2.7405805370425 2.5774496479825 2.497904049374 2.6056862298655 2.8158320392556 2.774479186124 2.8971065564397 2.3771351224697 2.2567580130321 2.8585003083589 3.2651488742478 2.9606798205895 2.8036721175617 2.6533747467 2.6728523214606 2.6240854105822 2.7546300942496 2.6676368497421 2.849632175534 2.6898724317546 2.6724898297243 2.9112509806793 2.5332598274659 2.2771749437378 2.5697687479013 2.5015728976531 2.3408556185301 2.6944778011295 2.6920202496383 2.4068979878518 2.9360252113561 2.620670277774 2.486612698382 2.5497135767467 2.6525103422864 2.5648427859114 2.6368061912616 2.407484454946 2.854358876011 2.7553890680224 2.9999525070519 2.7052222992059 2.6535306190609 2.6942663061022 2.8834047152045 2.773058283941 3.0189802084313 2.7366458623679 2.9152186383924 2.8854177800251 2.6680943877784 2.7410864724799 3.02856317051 3.2128004016814 3.1495981657249 2.6016850406074 2.7629931363608 2.8080685179361 2.8726706670235 2.5516339993114 2.7370402354113 2.9008914460645 2.6939904769592 2.6078938344671 2.8077298796817 2.617072330917 3.4059718941128 2.48947479049 2.5393609394209 2.3722754813875 2.6009692354173 2.2885730657164 2.462886728604 2.3155319163923 2.3705869696972 2.5569145372943 2.3507305463878 2.3290242286223 2.8727681080614 2.4635940974407 2.5371699838665 2.6038264674727 2.6824983311276 2.5646920008618 2.6509449879848 2.5177142895734 2.7172494869729 2.6765104124845 2.271551626228 2.5094496184479 2.5403111875761 2.3836625241905 2.010112375004 2.531450707708 2.5920791449841 2.7660001656163 2.6364388442609 2.773790737387 2.6477438482965 2.2468338222622 2.7627703617443 2.5952517635422 2.7263139887667 2.5562743138207 2.8647700422839 2.5681965451335 2.8813767402352 2.5797323802881 2.2680040773336 2.2635417534739 2.6878794410233 2.69010967189 2.7821784158303 2.568206587311 2.4083705632789 2.2191623674931 2.8124942752624 2.6268883495509 2.8359395128246 2.6440197177378 2.684163938362 2.4495162646953 2.4603039251053 1.9125748493658 2.5650943185328 2.4305516920546 2.050082698583 2.2259274581597 2.4364138833714 2.4800779140262 2.5018243887009 2.548764601591 2.8955079868761 2.4540999866588 2.2318357800788 1.9649154108857 2.1573581555431 2.6365391491781 2.4130916045637 2.4315891961667 2.0979877348533 2.6786003930776 1.8304659032293 2.7339008128496 2.5284501388196 2.5522147092153 2.5022965579419 2.7559549029373 3.2748140894034 2.3849715929021 3.0662621015578 2.5360916329433 2.5463454821125 2.555412592811 2.6234797675132 2.3927796908183 2.6036042528433 2.5389802373411 2.5589472994804 2.2637930172606 2.6431084359515 2.4793622682142 2.6622732295829 2.1016059595642 3.0756355710764 2.546925867247 2.4803604412925 2.3079485428762 2.3972714469417 2.5379407211399 2.6454143357727 3.0128917210758 1.7572396768285 2.6905189460933 2.626677491645 2.3544433549202 2.4591533038405 2.0683034972661 2.1770414734033 2.5541798756193 2.2950819173866 1.8975097147467 2.4798552362365 2.3814076381998 2.8062072769972 2.1418573246054 2.3467963594903 2.3056171243161 2.3833206966708 2.0638841168918 2.1015786249497 2.5035518299322 2.6506599803866 2.5001524409583 2.4580949606993 2.3042229089216 2.3408179206264 2.026216096325 2.4867560110045 2.2375662082538 2.2277650523711 2.5079098960667 2.4120649824333 2.5884848117299 2.3856764842063 2.1828098606812 2.5292533468062 1.8573509383305 2.1962503432575 2.4247065781065 1.6496268892194 2.2862032866829 2.2831619608373 2.5448304380394 2.371894072738 1.8271249711964 2.5545694143291 2.531295323891 2.596210724405 2.6131970901841 2.4743194062095 2.3954988886591 2.4666506464068 2.4495775248957 2.4622764169204 2.1320784852161 2.0290322105873 2.6315917239915 2.5214782714085 2.3464128840766 2.4283833122965 2.3470039057163 2.6743653172973 2.419118532015 2.276825686593 2.2377240965273 2.2705753022605 2.4041423348692 2.5562201955171 2.9553985003436 2.6167860069939 2.034825843567 2.4872638954423 2.8304318198522 1.9883859332884 2.4229987490317 2.4255317726477 2.319643825321 2.3172993513688 2.6369967768017 3.0433907313342 2.4084846902558 2.3550060819885 2.3499948801003 2.3963898226026 2.7017062442163 2.4829139418083 2.1920193238586 2.1834075583406 1.7013413145745 2.1267153758188 2.2019243161203 1.748266811722 2.7592626978604 2.6227402914426 2.3523097392467 2.2861751580129 2.6978272266128 2.616267483934 2.0046056638561 1.3087436576059 2.2840367597154 2.3401452045344 2.1400184317291 2.8209487212617 2.0561961348307 2.0332329296535 2.5457249122612 2.7335972411667 2.4453866930511 2.3349531388178 2.4198354268098 2.3455952160036 2.1895785677963 2.4716113888814 2.1753562127957 2.3459069802831 2.4881488559626 3.1933785805599 2.1634613059794 2.0169530288326 1.9825593596541 2.2049164914876 2.1304465294309 1.9771515402118 2.2047965171478 2.2526671464773 2.3200882395203 2.0782880350677 1.986177158662 2.5068267432793 2.4338370963901 2.5963097718822 2.3158650144656 1.8564879792066 2.4165244601144 1.7086902368563 1.6151605714076 1.9038113664196 2.3464978547233 2.695410691417 1.9922257255814 2.6957480646624 2.1372958239751 2.1619458615685 2.0175625073984 2.2714263411802 2.0266960372998 2.5105263521316 1.9153256207701 2.2853943276723 2.1026239379828 1.6811818801683 2.1227583894248 2.1664327776156 2.2844291932974 2.2412468083206 2.3000530985595 2.091897402635 2.3841053896816 2.7524607141527 2.0667045127121 2.3200225342841 2.2115409011739 2.1653639220808 2.3710350407733 2.1220482246248 2.1481381587514 2.6539611369753 2.4437815513369 2.1530925764433 2.8503237745962 1.5681831337758 2.0221026033723 2.6818958967746 2.1220610241961 2.3275270914501 1.278597353143 2.074339531418 2.7507069380067 2.1835341437844 1.8332021475141 1.9557270231944 2.3105046427265 2.1239691309828 1.8809216334396 2.1346516258777 1.9497344093631 2.081891735067 1.9373170958451 2.3341510791612 2.0886377087717 1.8912544740748 2.1118277381182 2.0894103172399 2.1677549308786 2.0475499964828 2.073176893084 2.8937338991758 1.9857009987327 2.1622621190201 2.3403950153855 2.1765584578694 2.0268682368207 2.2421316413239 1.7696578801268 1.962687086092 1.85064910256 1.9155946594355 2.0817255432262 2.7042785958736 2.3181252887657 2.0047810363949 1.7620995378828 2.398378516638 2.0512457660593 1.3511722895192 1.8129272218639 0.5816367898986 0.75320941942331 2.0285035827178 1.9814966860424 1.8648576728414 1.4058132517324 2.1092919444596 0.86504726121906 2.512515662793 2.6658720768573 1.97429090045 1.4525720949521 1.2230961080429 1.8633110162965 2.5170070483835 1.6355163490604 1.804183942295 1.8465925471147 2.4530833099835 1.8271759748232 1.8825066143633 2.0191864102911 1.6853618812086 2.1564187788463 1.9233690823705 2.0862227546013 2.0294874213662 2.0720181181511 1.8561313660319 1.6120999995037 1.999029402801 2.299021398803 1.5824900188568 2.46701361505 2.6054021071619 2.4700143876542 1.8935048704524 2.3113154298835 1.6425385960631 1.6180297360026 1.713532216839 1.6660209422513 1.9003734792342 2.1285726811584 2.165029076841 2.8697339648193 1.7274740505469 1.7050220330991 1.5561921361363 1.6333287138426 2.3890925245294 1.9759889701178 1.7769880568028 1.9804884205073 1.7476764901721 1.39414320951 1.3681664320634 1.9784789665688 1.5860780443329 1.5042717440757 1.5836816052447 1.8435405600162 2.2538254965619 1.2677317190062 1.8981752441876 1.1904240886171 1.4611573627707 1.6026531115946 1.9675547796699 1.7197195476056 2.2407894149044 2.0631494757987 2.045066821069 2.1369757313079 1.7080653926218 1.8896006528295 1.8749774186687 1.7358246121651 1.8678284450119 1.9603847877478 1.5178088802866 2.0355612598301 1.7827486081246 1.6791141010447 1.8236553251926 1.8816543993546 1.8801757197606 1.1649925967058 2.0225056365385 1.6809564208863 1.7812916567162 1.4940127727739 1.8085931765423 1.5129741141462 1.477019597746 1.6744429897894 1.7173154870124 1.5133623861692 1.7226437409957 1.6069154819225 1.3487174072386 1.4898193130457 1.5526202835594 1.1993385946436 1.7142007735006 1.3024902285711 1.7354851775023 1.5440347744158 1.5933770661419 1.2800754326563 1.3672427143906 0.923978425356 1.2074491517646 1.4198653686008 1.2979167063976 1.1986323804174 1.5135221927867 1.4113237683482 1.5920870626702 1.1077852884639 1.7554688611612 1.9350747812272 2.0760646810191 1.6995520102074 1.4625584238 1.5281176535458 1.628938274268 1.4586511029029 1.3487914354705 1.9190452148836 0.95634008183623 1.5101738814175 1.6319812317097 1.7988315424253 1.6991430747957 1.5864606504027 1.4685071006057 1.4471905900872 1.2218149765112 1.1016690242828 1.2774374338227 1.479985651438 1.3480538378287 1.4916226825986 1.1288051288914 1.7960159352432 1.4222527712274 1.7253104526599 1.7998040764824 1.3424293768342 1.3251556615106 1.6162838871124 1.6229712679681 1.2950133476876 1.4336019138509 1.3488075589248 1.4912583573356 1.3147083267991 0.77822880768907 1.2417031621207 1.5561640875024 1.2653177457997 1.0362598307193 1.4822212204922 1.3296583172393 1.2573202033822 1.1472340516723 1.4780862357569 1.0596666956962 1.2026286436566 1.2323972910568 1.2263689362135 1.0356599032492 1.1529114896536 0.69840630388139 0.8987596183236 1.0410053760002 0.89990743807755 1.2648818345041 1.3425892899455 1.2347024097348 0.97959658914321 0.74807111213431 1.0509884021403 1.0921462327235 1.6359647965244 1.2365694061894 1.0962618291297 0.97418169430355 1.1653469082591 1.0041782484364 1.2331262381303 0.44103426073669 1.1105844670279 1.5145659492226 0.90399095370045 1.0965354289529 0.7158872940134 0.78333595490817 1.0115571359436 1.2402314182338 0.87943930922354 0.92607243422254 0.92557398757528 0.63253205703809 0.9132170069405 0.46012407523272 0.39651574588663 0.45086568631343 0.59434875310996 0.77458667721637 0.82703192399793 0.81428002643493 0.7108294833352 0.75923549173865 0.84523960734727 0.85180462115377 0.39695023905072 0.72404047100725 0.93342154439474 1.6485557844102 1.6854135131192 1.1684880194205 1.3590262124787 1.0826159232453 1.2013592998041 1.1622472141071 0.65977243742781 0.76529167436027 0.62664828540391 0.63686962576177 0.63994793712748 0.75531075204409 1.0373728655782 0.65259732271116 0.59959523407122 0.72194286668419 0.82260594881053 0.54100123094723 0.51931742085376 0.76254580863571 1.4389721362927 0.75974661382863 1.4239555877592 1.1533310885339 1.4623984448179 1.5391717871535 1.4067893329594 1.3646459827806 1.1606698951468 1.2776059261619 1.2789228471961 0.80877017640731 0.66253801652504 0.47837170548631 0.40305937672221 0.40142869242444 0.8684777094327 1.1492546889781 1.0627449739086 1.3733929888343 0.7767494418048 0.86855882733112 0.96617471169254 1.3082794140401 1.0055255987051 1.2570983108343 1.1001241278133 0.91371192673006 0.7730608388453 0.69151406785412 0.52263464138923 0.76139011691578 0.43017818895766 1.0456279809216 1.0547261552511 1.4696799086164 1.1642057029069 1.2715923502041 1.2515950102712 1.5209426992642 1.0523177996263 0.98170482309372 0.6065135796363 0.94377201403423 0.87727618471557 0.94808726689325 0.91436958174321 1.0905491075241 0.49697163661394 0.61556475135604 0.68435842654714 0.55312131990841 0.78856360635321 0.45381494947496 0.54372793074823 0.81670891986121 0.90905352637405 1.0541267976935 0.66031264734446 1.1695211555681 0.73980334789972 1.3579270174823 0.98600647720917 0.75160959576476 1.133877767254 0.92342357413969 1.0876028229784 1.0301658915299 0.47567710361526 0.38724570425055 1.0433560507426 0.68648616739023 0.73633523102652 0.62078267499866 0.66164689569126 1.1276215387269 0.5023575396848 0.65621196450699 0.84069021120737 0.7138616156002 0.97551892413269 0.89986964248709 0.58652346613577 0.47519613750186 1.1243679112755 1.0463359331955 1.1999538307491 0.87981022457166 0.93477216139951 1.0344869502324 0.95348871869274 0.77420647695832 0.85000849040502 0.96203277210306 0.56610876215975 0.41520637850691 0.8230873329237 0.51420017051288 0.77700848832298 0.78660931540406 0.36453076889214 0.47618643603007 0.52429583890652 0.59318167371002 0.86089441371175 0.9683221257406 0.77025919677567 0.45730371843376 0.87375226444718 0.44469835689752 0.4396904331256 1.0552668809696 0.53081848663317 1.3756464326598 1.1940347047118 0.73212518289235 0.78600538028856 0.5086404397525 1.1576326669888 0.63153299519246 0.56970948549337 1.7055544740535 1.3418787278469 0.61108561956773 0.76485491723065 0.70339687466305 0.50106824458463 0.45834299939466 0.50344240435847 0.41391814152684 0.55318290807858 0.4098915098362 0.4748688666682 0.53286880138557 0.72930458360892 0.59800433913942 0.53140119111393 0.41159856127738 0.66319176011684 0.45318419957105 1.6751042454629 1.3214067551262 1.1543618698523 1.0323990758436 0.47397055927503 0.52768039504519 0.61002690286202 0.44427929396669 0.42815026054067 0.584979739555 0.96017420984345 0.72962770900949 0.69223899285325 0.57163755203461 0.41651067188326 1.1622222741822 0.83384527879828 0.56694357186593 0.43069877528001 0.6140126422591 0.4741554409382 0.50279716521628 0.4190734655417 0.43921364309907 0.57967337491515 0.7339946716795 1.1381848771864 0.64562950856765 0.59348146320904 0.68964726840406 0.79658859047635 0.72256386643069 0.41238809833585 0.65079585017989 0.79934117109703 0.86332449958474 0.90573527637465 0.97716563629701 0.91825294989004 0.81347815791077 0.74935820638336 0.87362453890376 0.62639124189413 0.66386009394938 0.5986708214516 0.8554226053431 0.45299213687297 1.1182468091657 0.80718524331018 1.2857416758647 1.1314710720536 0.72317687059932 0.68238298957402 0.72036190523102 0.55074310627254 0.64327890162634 0.41257560098428 0.88060871578582 0.64262428311308 0.74100397783499 0.87867683367942 0.78509907251417 1.1328852000176 0.66150286695518 0.70149944960195 0.78730915971724 0.75998271612931 0.64358073567825 0.4716238837835 0.53945251845709 0.90748383815192 0.6948443765003 0.94929519470511 1.0387829803775 1.033591930989 1.4622207992644 0.41416486317347 0.56260835080584 0.90739425292539 1.0531765743693 1.5630004574422 1.4226504492071 0.82575547437743 0.71027001309259 1.7947405096837 1.6155451765844 1.3372463886178 1.5132881267047 1.2921453779805 0.7178577308867 1.5729709365162 1.3099230437516 1.1717194276894 1.2682293984861 1.0905319351015 0.83384317843446 0.9217739077725 1.0773052834338 0.90171243130238 0.91179495558764 0.82694199363411 1.2131825104022 1.4899509719115 2.059482280362 1.7437209301624 1.4547094395837 1.2175364084787 1.1096950793256 0.69401953080211 1.2028215577846 0.99193127352857 1.2930812742371 0.99961681738751 0.98405856856263 0.82243002689071 1.1452986620623 0.78499309369029 0.73506663470577 1.0732917391057 2.0053252696 1.8653519377679 1.9908412368912 1.5930638223741 1.0327859730931 1.2906778264279 1.4376393316413 1.3614603070776 1.3058880698888 1.2583511720837 1.2664184935037 1.4112191426319 1.1365510527554 0.93279489582014 1.8545406010509 1.6491375331039 0.66819213373288 0.3772414759805 0.53770580406245 0.44441883556125 1.2221872268351 1.4718644571444 0.49840584257877