# vtk DataFile Version 3.0
d-3__ created by libgimli-v1.5.0-1-g5991b6ac
ASCII
DATASET UNSTRUCTURED_GRID
POINTS 1483 double
3.3802423101098	12.435481574566	-0.57001420684378
3	12	-0.2857142857143
3.4959596309848	11.998298039034	0
3.2490070092203	12.168560129388	0
6.0395510135596	13.367156253372	-1.2757999763971
6.5930002103947	12.023472734859	-1.2922192071349
5.4998599382803	12.552571297657	-0.59337769664261
5.29662096318	11.932351047571	-1.5392209346082
5.6153020589615	9.1440579133635	-1.0774777831171
5.7237069713611	8.5589744845549	-0.30827017969781
5	9	-0.2857142857143
5.3151026533923	8.4249591108801	-0.38240156963578
2.3178923476779	4.1926464382665	0
2.5373292327812	4.4716333182052	-0.48281884804687
2.3342974478463	4.0018571812202	-0.30572640106363
1.9994701911036	4.4258543307655	0
4.8968211033092	12.507755029533	0
5	12	-0.2857142857143
5.2932790228536	12.494788035524	0
0	0	-0.2857142857143
0.54768630893449	0.55020446432687	-0.60775225926193
-0.16846798780902	-0.24002860812406	-0.65332445545953
-0.28063481777066	0.41453578455018	-0.44890469943706
7.7	3.575	0
7.3102059000399	3.7470939102263	0
7.7	3.6732286664853	-0.53772532608145
7.3176226410905	3.2857280588852	0
-0.7	-0.10798167686939	-0.47517111104905
-0.7	-0.57707899562378	-1.1376990549501
-0.7	-0.61986630133594	-0.43486724047509
6.3962361866998	10.611290418241	-1.3182185489848
6.565939673393	9.5694509864085	-0.57379796778735
7.1295911592009	10.496363016677	-0.48219980545192
6.3839624611364	10.341052129245	-0.35036617584397
7.7	14.3	-2.5
6.7623683783591	12.987112326146	-2.233077027779
7.7	13.059020885286	-3.3539705522597
7.7	13.327367479896	-2.129915020979
1	6	0
1	6	-0.2857142857143
0.93236760237426	6.49128333619	0
1.3454573625665	6.353105459937	0
2	5	-0.2857142857143
2.1684298754346	4.7403793023811	0
3.0226729813355	8.4836106439452	0
2.5164096947204	8.910651700233	-0.41109082170818
3.4071201441719	8.4167381876838	-0.59109415332551
2.5374808587914	8.1383747261781	-0.35604109466584
6.2778911301719	14.3	-0.61136458754231
6.2225356773765	13.691717475418	0
6.5208076177088	13.495118289851	-0.49928801204061
6.7358646795693	14.3	-0.39005656748015
5.7965188279432	13.281940723964	0
5.5320359851605	12.925291312368	0
5.353113789845	13.264183036004	0
5.5919457801018	13.101154188917	-0.33537516396337
7	10	-0.2857142857143
7	10	0
6.5010306427949	10.010760669106	0
6.8196744207924	9.5136576917357	0
7.7	1.1375	0
7.7	1.6430719769933	-0.42557297445049
7.1939383721229	1.4724531054162	0
7.7	1.625	0
6.3572581294301	1.4772201134971	-0.96507376287322
6.5574763981385	0.84898833643366	-0.48332647821142
6.7774291048203	1.7003141153393	-0.4123635555875
6.1433933962903	1.4220674799247	-0.28622251631329
-0.7	9.1984657118068	-1.9278839451739
0.33291529395702	8.3305676904572	-1.2970017952003
-0.7	8.1442617177323	-1.0898260028896
-0.7	7.644268062563	-2.0766032868031
4.508194357046	8.6258793740749	-0.60770874662543
5.0095189690676	8.5009469809039	0
4.7609249278557	8.7686419230913	0
6.2306672701993	2.67753718	0
6.6360398560532	2.4670661479797	-0.44686919005428
6.4910302172834	2.4939022421641	0
6.1550873755842	2.4572757142813	-0.33684154297057
1	1	0
1	1	-0.2857142857143
1.4901571161019	0.99574153349402	0
1.1736530561382	0.72346383359363	0
2	4	-0.2857142857143
2	4	0
1.6440539242474	4.1532454240512	0
7.7	6.9501255673919	-0.74418826283982
7	7	-0.2857142857143
6.7521552376889	6.497772044976	-0.66059363300197
7.7	6.3887218416049	-0.46884913673037
5.9482896260331	7.5800048202495	0
6	8	-0.2857142857143
6.3095291646476	7.6896230263426	0
6.1432247512519	7.3579252770212	-0.41388970597853
3.501272057481	12.437082442362	0
3.3297831413816	12.805427976196	0
3.6823393063421	12.851671876304	0
1.3671388209093	10.633374397873	-0.4152980605108
0.95248763025238	9.835503527633	-1.7808732395437
2.3518021577517	10.495200039554	-0.50930668321109
1.5373497846005	10.021005779616	-0.41781002197689
6.2054585007625	14.3	-1.3884356875417
6.9442913034148	14.3	-0.89278753613404
1	8	-0.2857142857143
0.54167473049383	7.7707286368021	-0.37916050195481
0.44975345341211	8.3808810318019	-0.31136669048163
1.022076618805	8.4121844676845	-0.45670843222423
0.89173681858685	4.6122796653579	0
1	5	-0.2857142857143
1.2386083631299	4.6841794176855	0
1.3923592539172	4.7130963353432	-0.25978315417498
6.4242299347383	5.6840176993625	-0.35514079575845
6	5	-0.2857142857143
6.3424541740313	5.2754910113697	0
6.0447933133998	5.5049876953384	0
5	2	0
5	2	-0.2857142857143
5.5190673049038	1.9208326821789	0
5.2306444928855	1.6547875838902	0
5	13	-0.2857142857143
5.257359886178	13.540476325965	-0.63012071696907
0	6	0
0	6	-0.2857142857143
0.066757795936057	6.5008369551487	0
0.29243888553297	6.1743316976873	0
7	9	-0.2857142857143
6.5033796411008	8.9981073418213	0
6.5607922823332	8.4440251373986	-0.63122800754088
6.811726958696	8.7028726276344	0
7	5	0
7	5	-0.2857142857143
6.4986646723997	4.9192017057136	0
6.7141996182955	5.3303468264748	0
7.7	9.5988491781319	-7.4736716195817
3.1507199964473	10.394874003632	-10
4.8663216648816	7.3792654266676	-10
5.1015502438684	11.553440122249	-6.405163284031
7	7	0
6.9589015254993	7.4884372736447	0
6.761634669635	7.2408783569561	0
6.0574437090791	0.20878539066113	-1.8779478182653
4.9838025543493	-1.3	-2.1179854334408
6.0308685444023	-1.3	-3.5425074203685
6.440522236286	-1.3	-2.0103523001383
3	2	0
3	2	-0.2857142857143
3.0105846506	1.4855923993349	0
2.6480485575569	1.6700894103009	0
5.0527203000088	13.535479310798	-1.5373151531841
5.0246691847863	14.3	-1.036131499603
4.1300067609037	14.3	-1.2024507502556
4.4744197407865	13.547407617085	-0.63586628370479
2.5813517996865	9.6286485974984	-1.0236151505326
2.2955236368793	9.5881134365907	-0.29154811067367
3	10	-0.2857142857143
6.4248505083522	12.522044346884	-0.42559946143008
6.465073985677	12.51782996062	0
6.1644652963082	12.36965297069	0
6.3832046574853	12.135664356038	0
2.9908655166747	12.498069465114	0
1.984703560175	7.5906357794687	-0.50777967523709
1.0508409188237	7.354634772545	-0.95680796450018
1.4515039911109	6.5829264157992	-0.56173008002516
1.3866216751759	7.5118935788728	-0.35488362790971
2.45	14.3	0
2.2168273415577	13.627179222019	0
2.4554693735383	13.497784276817	-0.39727655195048
3.032551925238	13.762466584345	0
6	11	-0.2857142857143
6	11	0
6.4843452951013	10.966514281357	0
6.2440599782187	11.234710090977	0
5.5	-0.5576923076923	0
5.247952850371	-0.29481663567353	0
5.5452342683804	-0.096294524539033	-0.49623355575102
5.1016398375367	-0.61489919294387	-0.38960315167385
2.3232496140345	4.0110297188843	-1.3835068702753
1.6586320571652	5.8268322896535	-1.5213554090482
0.71002746520551	3.976198472286	-1.505315421377
1.3296414347056	4.9089994064226	-0.82629172929831
5.6	14.3	0
4.6510156691765	14.3	-0.56274723813486
-0.090060726359069	5.5363033123106	-0.44581840212762
0	5	-0.2857142857143
-0.38456492153953	5.1805342841446	0
-0.7	5.0205501441189	-0.32507149572551
3	13	-0.2857142857143
5.1848675157348	3.2965660830064	0
5.4046165570399	2.9501485228537	-0.43988698776777
5.486289771732	3.4981838484395	0
5.4682750147717	3.0660382780841	0
0	8	0
0	8	-0.2857142857143
0.5178658825659	8.020802151125	0
0.25864598874121	7.6639427314904	0
6.7098208972434	7.2950601162224	-1.3269022195366
7.7	7.949747446039	-0.91833665053736
7.1577047253729	7.4844276204668	-0.64272934527953
4.5892004575887	3.5369189576522	-0.55981654583505
4.4420188491858	3.4660037233365	0
4.711527897636	3.7375259681419	0
4.3494632088922	3.8023533541114	0
4	6	-0.2857142857143
4	6	0
3.9913416390327	5.4988534517732	0
4.5093195747582	5.724109532591	0
1.4	14.3	0
1.5	13.55769230769	0
0.89284349994875	13.714781914708	0
1.2292962491126	13.670420041977	-0.37788942865261
4	9	-0.2857142857143
4	9	0
4.5502440226935	9.051086551406	0
4.2963154051231	9.3907765114078	0
4.5321110402369	7.5028925212181	-0.60552533206341
3.5085861108931	7.3893844432383	-0.64873189634878
4.0050480592533	7.4977657988521	0
4	8	-0.2857142857143
5.8961095330637	-1.3	-1.0125722125019
4.8982045728458	-1.3	-0.82217786726149
5.2296982103621	-0.31621891710017	-1.0679345669244
4.9010483556055	1.478997710586	0
4.5631533182214	1.9074133665015	-0.41231302454656
5.0320642355688	1.4518180616801	-0.36509190625555
3.5357179442866	0.46434418042464	-0.60031716899974
3.9407498163335	-0.4411178910574	-1.1087857494349
3.2826824657074	-0.47747544834602	-0.50866572047373
2.802260468126	-0.22902113419037	-1.4542342115515
1	13	0
1	13	-0.2857142857143
1.1191337005982	13.329221525091	0
1.4884720276527	13.02962190928	0
-0.21681247778723	8.5792000107362	0
-0.35118339610893	9.0917088673227	0
-0.7	9.0968147603684	-0.35256881313688
-0.7	8.9375	0
0.51662331659314	-0.40156299802931	-0.67799391089861
0.13474046208011	-1.3	-0.85683826964205
-0.16941603187845	-0.57512411281067	-1.4019543009948
6	13	-0.2857142857143
6	13	0
5.8068477026831	12.499749736815	0
6.1890713266052	12.67695534294	0
2.5984255358496	5.4578875982232	-0.67264342113488
2.2172109403706	5.4325217687574	0
2.4824672258873	4.9705265694472	0
2.6598112065826	5.3330483814808	0
-0.7	0.5146532048839	-0.51418317722913
-0.7	1.0492756199945	-0.88024243711367
-0.37698118088761	0.89350663208132	-0.33360419980628
-0.25096134668857	0.95145340086689	-0.90448711690516
6	2	-0.2857142857143
5.4002158317804	1.7678073061348	-0.50898482673054
5.8183999242367	2.5164331321023	-1.0840550371572
-0.13917028340788	5.5182991349521	0
0.31578338747353	5.7567158690792	0
6	12	0
6	12	-0.2857142857143
5.513035862904	11.994753403328	0
1.5285536174902	4.2362319729344	-0.43851980589517
0.57100063419133	12.499134596467	-0.56842257570583
1.2565986295401	13.42724014175	-1.149557674079
1.4486633887383	12.69302170761	-0.31714242590465
6.65	-1.3	0
6.903739311401	-1.3	-1.0953527719967
6.3980205255852	-0.38130956989248	-0.5855507841991
7.2175457166608	-0.5710098692386	-0.51938212652516
3	7	-0.2857142857143
3.5055774955602	6.7395375676091	-1.4094768265058
2.383927159844	7.4535505157878	-1.0620490471275
1	4	-0.2857142857143
1	4	0
1.2222221827385	4.2954008280594	0
0.82345085295407	4.2815033897546	0
5.6	-1.3	0
5.790373644402	-0.65252487431205	-0.38521635467031
[...]
CELL_DATA 5483
SCALARS Coverage double 1
LOOKUP_TABLE default
1.5015319584985 0.74644587662918 1.4077475401312 1.5705640490113 1.4433219468813 0.87498727927503 1.135546565301 0.66637032932545 1.1127925524885 0.2130094083926 1.8391955420162 1.660079346054 1.4916627725229 0.72458163055793 1.245857820953 1.7906081451738 0.97710979383984 1.145465332618 0.63558855400223 1.6512828584692 1.4399663717631 1.7055709581818 1.8941014060858 1.0678620598165 1.5970067310121 1.390515077962 1.2430694229472 0.58558479858206 1.3278032629474 1.6507137488415 1.5690675340711 1.7572700045716 1.2071605510587 1.7833782105389 1.483043032008 1.7739442451755 -0.37505619083704 1.80468595007 0.27056103639757 1.7560933149362 0.62331456470367 1.3707000279016 1.3891197694729 1.4603121484759 1.2852324898295 0.89169386814343 1.8215511886677 1.0340985467007 0.94550066237644 0.57130020146431 0.69153175437437 1.2805671542228 1.3787871550824 1.5265754675899 1.7259931162804 0.95747862488554 1.4958195632842 1.869585755508 0.86240047412846 1.8379395270878 1.5207364951674 0.62818010642285 1.4241789341247 1.5211050210054 0.72722307723475 1.5820930035901 1.1808720898959 0.63647170208748 1.7121197544905 1.571866826018 0.82675683715377 1.0909562865404 1.780630127563 1.6894754096773 1.5356740865909 1.0376405891514 0.62107046621846 1.2720949974361 1.9282666870219 0.64101858387483 1.1566386878817 0.80170058017182 1.4992130250774 1.2197628320936 1.4979412651524 0.99715455482796 0.61024695252161 1.8477287490999 1.7699707716189 1.5510005582312 1.1807542349901 1.2365079140795 1.2760539364756 1.2178428293614 1.4555615546053 1.626707117198 1.5820087427838 0.97901510084685 1.644413405851 1.6707350428081 1.293957372423 1.8029062349812 0.9629794850235 1.5997172729203 1.1147089010883 1.5475560699387 0.31626658411942 1.1350099015355 1.813207533027 1.8839415057526 1.6852858489452 1.2902951979193 1.4813598767946 1.4744488821846 1.1607844216732 0.74466628839676 0.94882104872409 1.018143477688 1.5607091915164 1.2022731546945 0.9573136662181 1.6191485551816 1.2494315110396 0.42845269356067 1.2670528108699 1.7859656289949 1.060985050333 1.8078545261294 1.3294497040447 1.5415125509405 1.5004165174275 -0.19616731027727 1.0669123716503 1.4194329127471 0.814574542994 1.5903752374406 -0.39489860698918 1.3538067378374 1.3403058187677 1.865143120237 0.56079096793731 0.17126665749145 1.7905292710857 1.6835735723069 1.5128230198996 1.4179108150721 0.90192579156525 0.69664554033865 0.93020465062299 0.59531215643706 0.37279433166212 1.8653514528021 0.82237031932261 1.2163111948418 1.3978366256888 1.6362277187102 1.4821687022988 1.0539585141658 1.7339285424039 0.78169307648633 1.4318410571088 0.75282286320956 1.0074383195355 1.588028652069 1.8700033413238 1.6512284522262 0.60543898167875 1.8140674374052 1.4310756710434 1.8054814011461 1.5870518583145 1.1735387775045 1.2879336891906 1.8344870496437 -0.075412579255407 1.8649516330526 1.9213391900619 1.7651124270993 1.6934194563797 0.17680231311419 1.5517352680602 0.42034490453151 1.1168946667292 -0.071499881476079 1.2161071661487 1.8705502286113 1.3993134307129 1.5684387854729 1.8271083719394 1.331182535234 1.8657355621684 1.332255215753 0.74234212008687 1.6013847033479 1.2783429720394 1.0749958580549 1.6395891620582 1.5417199176723 1.3984851141538 1.8550658286161 0.55119365377081 1.9282079402585 1.4738721495813 1.5034948918329 1.9270431936747 1.6655488998467 1.7049605408844 1.4766561160707 1.0783725345297 -0.42284361472733 1.3773913125844 1.0734921191056 1.1759819536978 1.8906401649482 1.8543641288235 1.8746440251251 1.8458957672577 1.601907042404 0.86547502346353 0.85914522126638 1.3719999707662 1.7371636956776 0.5685214595216 1.8832507263204 0.72810604117837 1.6777076591835 1.5611091715695 0.85718910028773 1.9251852964254 1.152929858693 0.91986666744679 0.88236273751738 -0.12845602286602 1.8635502435838 1.4670950045456 1.1724131321296 0.58384318251555 1.751892907763 1.6979444091509 1.5425286795232 1.7648570152088 0.70950230269487 1.5833339294536 0.96545281468027 1.5823569931086 1.8428286915621 1.3252537185496 1.5326286759056 0.54313075684942 1.6169944461908 0.69014176486274 1.6729908671337 0.48263336283008 0.21940952241582 0.028862369094922 0.46164890297307 0.88257419627184 1.8656394834461 1.313175864892 1.8722043179304 1.0585827978654 1.0752816070697 1.5248456154882 1.3512417935158 1.8004876451218 1.8398633738127 1.4585264255984 1.8594771728699 1.5431711422392 0.74395096104631 1.8579401444729 1.8927791612358 1.5560173240633 1.4327718345163 1.8477609674409 1.5490366778143 1.8592657470457 1.5868731963092 1.5892224981255 1.7251232811935 1.6532332813521 1.9482126175103 1.4434647773723 0.53898415074949 0.51508611447133 1.2750276027231 0.97056605561371 1.578491271181 1.7512010560537 1.3040038859819 1.5311792483139 1.8445853645983 1.7232114921999 0.57751107949632 1.4660533130951 1.700190366225 0.7253131282674 0.30453471037476 0.84732928686593 0.51380714636319 0.45636291072039 1.5749045083831 1.4033099006482 1.0459297954397 0.82036246637289 1.1176552229467 1.6260752798181 1.3046351699778 1.5355618656332 1.1111317117647 0.74283737040145 1.589155889438 1.2779311609881 1.2540194514232 0.64308409131581 1.166657639203 1.5238019778669 1.0870553029173 1.4477031229411 1.1615187853569 1.8264893983543 1.556331859429 1.5405569081311 1.4231682246117 1.9168508777672 1.2684126394264 1.6941008799712 1.5569076532402 0.47191183570186 -0.6069464971557 1.6359439778027 1.2070420671381 0.73651992484349 1.5409153039272 1.4949045217789 1.8100657179264 1.8851436817095 0.96782810495764 -0.57147974889118 0.85452800062524 1.4147827463822 1.2241669136734 -0.22762319707477 1.0703249243215 1.0527267171565 1.4173317519967 0.92017092263603 1.5679067205364 1.3702606291889 1.2505474056867 1.5324501963152 1.7202889029643 1.7784358504694 0.60656957211547 1.8818264666654 1.0036374569462 0.13164082539788 1.3143222068989 1.7439215862964 0.50276833904775 1.3062066131156 1.3727402623002 0.72822237969344 1.3815888580676 1.7415691708967 1.4783084346604 0.88280392286363 1.7652366552634 1.6769659427077 1.2504118307737 1.3151873732845 0.97344978919267 1.4991714408981 0.2818195760248 0.58594851861061 1.1513841710203 1.2970404047272 1.5230600579746 0.77139874729713 0.37412716370044 1.826594132359 1.8889233416513 1.9002763043204 1.605658225912 1.3612526345665 1.8747812384189 1.8270494761358 0.58542257774889 0.83792972548359 1.5235449372587 0.99516347978653 -0.2164772825382 1.5946772974425 1.4169026988175 1.4006047536445 1.5810455553051 1.6210634756719 1.4708412891671 1.4559335499732 1.5397930618283 1.0813912725922 0.83957684094811 0.86686255910336 1.7507702320267 1.9361139754659 1.2414640575483 1.3573432604777 1.7176542967426 1.8529840800787 1.2737612727392 1.4994641274629 1.5161027937422 0.66328343265138 1.8319427947726 1.4185537119345 1.4485474123071 0.9599079601887 1.5618421295316 1.8353022624417 -0.3662914467725 1.5744471753106 1.5153651456354 0.5292118305628 1.4029399466927 1.3573978091652 1.0474512543517 0.20673415067422 0.14698775371131 1.598437507884 0.3217266898639 1.6808055721919 1.3052222195636 1.8130193893291 0.89406231386154 1.7452915390201 1.4425485266265 1.7397899165402 1.7992234617864 1.4062211899055 1.1986656182835 1.4273563009771 1.5699186864149 1.2788877223557 1.7537283068525 1.8379861852132 1.558126279569 1.1398584245446 1.275485727301 1.1997329216384 1.2410341514767 0.92944919340556 0.69872990930466 1.4544038904829 1.5282296278947 1.7819543111773 1.4797562726359 1.8871117114552 1.4193801650556 1.6940594361703 1.491950894831 1.8936158660495 1.2616488720018 0.99461267193472 1.5996601426967 1.932437751456 1.5055141383493 0.88052918460852 1.3459986637778 -0.24460480909085 1.8481208725519 0.4637611439756 1.8136723581714 1.4798163167072 0.2428403126582 1.5754261987413 1.3133139039442 1.0709953347467 1.4992678931943 1.71805305978 1.8527154774027 1.426967697414 1.4204585833185 1.8034025981096 1.6323384858281 1.3767822916659 0.71331020821319 1.5926296407914 1.5724884239872 1.5307814870033 0.66375741597202 0.47365298250475 1.4418494673959 1.2335695295973 1.5058405183157 0.83679332603075 1.8480567879517 1.5594886681018 0.82348355702964 1.9327328892069 1.4233625613083 1.0563717434117 0.63195471654429 0.83255598140257 0.98408948391185 0.53028339689199 1.6956236494843 1.6109598073718 -0.014227546562621 1.3445330430505 1.160255562396 1.4509249137376 1.3452438353241 1.5413913618437 1.5187197714357 1.8042918495782 1.0409355692698 1.6009889743715 0.76029099627945 1.0764352965323 1.3867411164873 1.6033998702392 1.0959163966121 1.7858043228274 1.6220040324759 1.3182313868333 1.5980051772224 1.4335279064792 1.6656091439071 1.5663300919534 1.619308997785 1.5852719348738 0.41401672822188 1.315264194995 1.4361943365279 1.8271132342297 0.77654147870848 1.80029191676 0.80271333613095 0.89462819248145 1.3383560135464 1.7930670907906 0.87355762148713 -0.68633401895197 1.3710055105506 1.5439026047365 1.2723842387961 1.6996777008232 1.4734340843537 0.66195087422986 0.81973113108385 1.8434368417814 0.93671011794079 1.5865488073955 0.83833168893112 0.6248040289959 1.3549193425278 0.56745843342373 1.5673515298451 1.6085801712075 1.5294059462166 0.053774841245215 1.1182740787317 1.6978665556014 1.2026907405854 1.537889600759 1.4286911056883 1.3853205966786 1.4327539880171 1.0667432415886 1.5929832069002 1.5620427005354 1.0267182491794 1.0841379132144 0.2545088610195 1.9124491940694 0.91896372042025 0.34040824953242 1.7402216163879 1.3288050286031 1.6178329626763 1.7011101736712 1.6774275615928 0.64828612269123 0.85540788138697 1.5904334806544 1.3863026077055 1.6561603951907 1.1396014547959 1.4973141461667 0.7773174006792 1.056203345039 0.86273456840493 1.5095896618122 1.2360667356754 0.67653365291516 1.8738761085929 1.6568612750962 -0.55120837562439 0.13152532743053 0.89130077078064 1.6552975070892 1.7517363616227 1.5534735489357 1.8441706785813 1.0985313529271 1.4510409159817 0.61520734549295 1.6786506289007 0.3707995972521 1.877871959091 1.1079659868489 1.567857840503 0.89948465691351 1.6101087059406 1.5015716542133 1.3526576199562 1.431483594091 0.3513792973675 1.861451506315 1.1454326240978 1.4982413117377 0.4539381563765 1.4694267699681 1.5820762579158 0.9540443417129 1.3592880117446 0.87893348435472 1.69546103092 1.0928525256182 1.4732681131262 1.3763012629845 1.2655806673145 1.8662997767223 0.69096782151509 0.411861617072 -0.52662938582449 1.7806280038323 1.1234343044024 1.050613608426 0.76082208910908 1.8233520071488 -0.20729841649156 1.6216909376561 1.5825815505754 1.0963284353551 1.0378129175471 1.7762238406902 1.8783841396455 1.4620473570809 1.5312177482335 1.7945118376724 1.6997103759462 1.8513232810358 0.73420981764325 1.4022227815251 1.8526908408472 2.0471422748819 0.69775935542958 1.4479609674363 1.364545996292 1.4669969152115 1.5763208881021 1.6077919113258 0.62042540647652 1.7320406308596 0.70186379291225 1.1327940391689 1.472924814904 1.9284695884926 1.1195404245559 1.4126295677137 0.11545017007872 1.6834814594399 1.6618014017309 1.1748641746664 0.27482256445999 1.3973019499035 0.7120054450427 1.6606241398946 1.1730505623047 1.5195918191002 -0.34701592625327 1.4406182811636 0.68382496614508 0.76896094043601 1.8562557765127 1.2730180310175 1.3128985286432 1.5353043694815 0.46047273479837 1.8701120924879 1.8460089729165 1.5182717469431 1.8297566096446 0.65782244521488 1.4158346856355 1.713895554614 1.5259073809865 1.0420406759392 1.7958744742578 0.50588057630477 1.2656153831124 1.3848641123454 1.1828220263786 0.80213097347289 1.7792953465256 1.5611828606015 1.369802246781 1.3731514395396 0.70286040611377 1.3902910508349 -0.41136220148142 1.5874121028351 1.006943939386 -0.27501587872749 0.25562540642833 1.5370776714675 1.6405498422826 1.3508038991161 1.3777726747944 1.8715377062273 1.534332553463 1.0740086681453 1.6213190730944 0.91856135844489 1.1900669564982 1.4732391113357 0.96900342582878 0.35510778605821 1.3681158141193 1.4481070426392 1.8573109286095 0.75663481744301 1.6677077744363 1.5339085010345 1.4586172313624 1.5671496956219 1.5910181127461 0.19292054001391 1.01903449734 1.3908770796248 1.0329747741306 1.2357065394662 1.1319393506629 1.7649882340295 1.0526162699589 1.2485861843052 1.4607885562152 1.7977469996746 1.7398562317066 1.7481038407192 0.63587532008273 1.8666650844386 1.4732330902742 0.7535124832403 1.1866751923148 1.4957051174859 1.5572274484866 1.1113181305788 0.83908049261252 1.4431846248112 1.5737170067434 1.9260063768115 1.4261551588427 1.3010388640599 0.7954693363691 1.4065436822325 1.5677386329035 1.5830921545184 1.8131822345955 1.4081853169791 1.5476849800541 1.1289578397362 1.54339713005 1.5990131710434 0.82820537930769 1.9063146514941 1.392159171669 0.5679029987116 1.5976876886488 0.87852117544771 1.5230783838484 1.2172389155348 1.7334762715689 1.2031226358165 1.2100555136457 1.5632969763445 1.14529745434 1.6568665813105 1.8569959201748 1.3199905442497 1.6446954673708 1.4490602730768 0.47978969388152 1.0172976983271 1.7874504392173 1.7289596038689 0.14699294094744 1.5914177699381 -0.55885085415584 1.3933185826499 1.7266562228727 1.2988714994185 0.61087630440645 1.7720890929271 -0.70374592989763 1.7402151509604 1.3224992156373 1.4398291217576 0.72963175318623 1.1739585826903 1.385845818459 1.0392195263036 1.4690482170352 1.0766762292999 1.7241697243812 0.77413308620015 1.4219590525594 1.5054721645592 1.2119837975953 1.3382253797272 1.586395976875 1.5693216392303 1.465884439341 1.0990212292527 0.62330046872216 0.75620483337931 0.63058511786675 1.5289616033234 1.5731426804454 1.5878441793151 1.0668447180047 1.6740483399075 1.5484280318419 1.0979797497562 1.5881463637601 1.4443928712836 1.6019222498937 0.50426757178062 0.96355911543181 1.6036856143838 1.2681252918562 0.93462441550796 1.307167607187 1.3502805025409 1.0593773048858 1.2747844514266 1.5353068063345 1.5079729164999 1.2020719869338 1.8670142556785 1.8239108917397 1.0832171919472 1.3505796050419 0.72362366992348 1.3396411848098 0.67219454059003 1.6437675393482 -0.20703369400681 0.67451073184164 1.53562224456 -0.27501086640891 1.6671524396881 0.70732927226022 1.286701711884 1.3141416600617 1.4336342070358 0.81804177435521 1.406095290589 0.47353861817139 1.2473109119916 1.5708233603851 1.2698883500257 1.5485326227164 1.4987066982317 0.96655801123482 0.80125016205035 0.43122195742073 0.78163905672434 0.54505099274128 1.8396669261457 0.449410881176 0.92161802751299 1.5255907040706 1.2934583035869 1.5415071604684 1.6280503748362 1.5621392661061 1.6021479336568 1.2355251755133 1.3928339509343 1.5166307519895 1.5387992180984 1.6915136106037 0.55378437718111 1.5775823572994 1.5698320652877 1.1718517903792 1.1458761048274 1.656295743655 1.9072514686821 1.5986669393032 1.7207733389258 0.66819307494581 1.2380350217018 1.8091360149876 1.5754086354839 1.2926838957855 1.6750775630812 1.024157436663 1.3738942162223 0.41286660904156 1.7356109313757 1.2954450262509 0.67923186822454 1.4655114993152 1.5237636288736 1.4109559971561 -0.15838801295976 1.2794824396127 1.5785901413278 1.868105432486 0.32023271576588 1.7728862414557 0.81016255531998 0.21651076984812 1.2007507616381 -0.46264325681339 1.7080907994861 1.9137655917153 1.4221139620324 1.0018080790301 1.5016581897245 1.761389072606 0.39224538063603 1.5827832775247 1.4890400254788 0.22306765533862 1.4415749106686 1.3482436389488 1.6391717048035 0.95285366151768 0.52894423437699 1.4308886648921 0.61822902243333 1.2641570706519 1.8749471048457 1.3590299101252 1.4951288555267 1.3231493242504 1.6181020433115 0.34889607551289 0.39651861700601 0.97461395972327 2.0088363205732 1.1252556683019 0.62037007829576 1.5314580246588 1.5758752915571 1.0553456781674 1.3604657339822 1.2410968843712 1.3448357289976 1.574621432619 1.4795259728344 0.74093665886963 1.2913503697066 1.3363269100951 1.6167770967375 1.8851132145689 0.6007664353869 0.87077995307846 0.47749665682435 1.5164211290796 1.3201906105032 0.79650902600022 0.986861665499 1.773922019846 0.49764836647316 1.1872242403385 1.0593611799289 1.2852189198826 1.7437411481623 1.2409068424481 1.1552367071833 1.7917256827982 1.8823802560385 1.5359742949572 1.7392941461575 1.6118896375842 1.2383588329526 0.78897738863157 0.74742272502771 1.4866088304473 1.0642253650457 1.1848572450372 1.4897476716641 0.76103095457506 1.6476795488442 -0.15537030006422 1.8062663742433 1.6076772249817 1.3580931188664 0.53492879426308 0.60666865136485 1.7603328996282 -0.026829870739025 1.1482787145998 1.2885472061982 0.60428640676932 1.1550761999556 1.8545992413826 1.8091120202741 1.5053883730435 0.66807252470503 1.7105421461385 1.7416132861701 0.3211618467145 0.91099538817265 1.6402403139797 1.0093685125167 1.5492616023883 1.5407178593208 0.93881775188081 1.3746186442961 1.2335113625844 0.74447854599492 0.64549458034038 0.62027740196416 1.7744617818407 1.8465614490652 2.4779561408711 1.5613190507919 0.88052047497645 1.3787137590823 1.4878921955868 0.93160181456794 1.5073798530034 1.7093555406234 0.49910664512136 1.7445622423868 0.86775829383243 1.7416532283324 1.505718843961 0.75329360264113 1.2051814396229 1.5091096828993 1.4028710817682 1.2360872371526 0.89035084883915 1.6497943000736 1.8116094504482 0.85143128180662 1.6969022091347 1.7463675538515 0.46740073377895 1.9783664767857 1.4201650506055 1.1819726221049 1.1151156890636 1.1201726374921 1.5779241606906 1.4707459298877 1.7116231640618 0.87960845672615 1.777629507929 1.2866755855629 1.42148380878 1.3294715291764 1.0357773696811 0.65264899397916 1.8957537421554 1.8259358147552 1.4396843971903 1.9186466626426 1.0553103100758 1.0335684240859 1.5110124807937 1.4962772933785 1.3493652871491 1.3546145952741 1.4998317032226 1.0498081738635 1.8015958758993 1.8559072695454 1.404319511584 1.060430584049 0.79983010370791 1.4157881842984 1.2609864895697 0.32102757453584 1.5597355623475 1.7207180259914 1.2819243510609 1.8633272210688 1.3542781449887 1.0685513981143 1.8819664777724 1.5189753876092 0.61317102115457 0.73037200044782 1.2849289737159 1.8361630146722 1.1773177926963 1.0376162367254 1.5256580760214 1.3140761897766 1.7156191596163 1.5883929693203 1.2179986144432 1.3341056654503 1.7232477318623 0.88476855198427 1.5967773783892 1.6312233799338 1.8777879570081 1.4829148007898 1.2745060937397 1.7759901028373 1.7463310461054 1.811238091982 1.5185024030994 1.4568032366384 1.4758841375079 1.6030259114027 1.4743813170303 0.9295695920112 0.02719084305886 0.8862707837729 0.78500777400177 0.76738471575553 1.5814560854845 1.2450566251087 1.7618195584302 1.2377538172118 1.5268432258109 1.2674654729788 0.60884393959425 1.7664134588129 1.546614350359 1.6364532002062 -0.38624695391385 1.8496958856888 1.6117945296818 1.034527466637 1.8350016998226 1.1909301805185 0.96838118897984 1.7813953240278 1.2946875580303 0.59412393269912 1.4557883363687 1.1934359889253 1.095956411275 1.7874990466525 0.94316445248814 1.613822412595 1.3201118725259 1.3367081524497 0.97747242706233 1.7810108158712 0.22282297536151 0.6916134516338 -0.49846468313721 1.3834017711913 1.4280340920987 0.78766798254979 1.0534482517735 1.5829502239418 1.6673197290436 1.4060949794323 1.6182309492427 0.8817284139538 0.85860141449588 1.8279207294791 1.7506680647988 1.4932391519321 1.5808033741035 1.4601544931931 1.4170862598623 0.59663723729107 1.3802370914074 1.6743253650054 -0.15554847336155 1.3251624335627 1.882266604322 1.4382435627377 1.4136823080805 1.2451632742002 0.87148873263703 0.46098774962811 1.5446646266497 0.75071927129839 1.3770979122045 1.3979812214052 1.5456586673237 1.6064021530198 1.7878838124095 1.8240494857092 0.30579733465173 1.4681320660691 1.1025215408265 0.43530886497143 1.8137770107514 -0.48250271868703 0.57889598548782 1.2721257461292 1.7171317519945 0.89170789576057 1.4914546494326 0.55499183635552 1.4331217148442 1.0266013363371 1.3129903490042 0.96971278986134 1.0256132000665 1.8859564876641 1.4598380389078 0.733756255462 -0.096639624800683 1.0651069003023 1.3202541594281 1.5524082599738 1.509022787002 0.95732798221176 1.8434620840453 1.3333437315824 1.5025840083798 1.4506746984633 0.73830750327801 1.5632038032889 1.5201745968825 1.9