# vtk DataFile Version 3.0
d-3__ created by libgimli-v1.5.0-1-g5991b6ac
ASCII
DATASET UNSTRUCTURED_GRID
POINTS 1483 double
3.3802423101098	12.435481574566	-0.57001420684378
3	12	-0.2857142857143
3.4959596309848	11.998298039034	0
3.2490070092203	12.168560129388	0
6.0395510135596	13.367156253372	-1.2757999763971
6.5930002103947	12.023472734859	-1.2922192071349
5.4998599382803	12.552571297657	-0.59337769664261
5.29662096318	11.932351047571	-1.5392209346082
5.6153020589615	9.1440579133635	-1.0774777831171
5.7237069713611	8.5589744845549	-0.30827017969781
5	9	-0.2857142857143
5.3151026533923	8.4249591108801	-0.38240156963578
2.3178923476779	4.1926464382665	0
2.5373292327812	4.4716333182052	-0.48281884804687
2.3342974478463	4.0018571812202	-0.30572640106363
1.9994701911036	4.4258543307655	0
4.8968211033092	12.507755029533	0
5	12	-0.2857142857143
5.2932790228536	12.494788035524	0
0	0	-0.2857142857143
0.54768630893449	0.55020446432687	-0.60775225926193
-0.16846798780902	-0.24002860812406	-0.65332445545953
-0.28063481777066	0.41453578455018	-0.44890469943706
7.7	3.575	0
7.3102059000399	3.7470939102263	0
7.7	3.6732286664853	-0.53772532608145
7.3176226410905	3.2857280588852	0
-0.7	-0.10798167686939	-0.47517111104905
-0.7	-0.57707899562378	-1.1376990549501
-0.7	-0.61986630133594	-0.43486724047509
6.3962361866998	10.611290418241	-1.3182185489848
6.565939673393	9.5694509864085	-0.57379796778735
7.1295911592009	10.496363016677	-0.48219980545192
6.3839624611364	10.341052129245	-0.35036617584397
7.7	14.3	-2.5
6.7623683783591	12.987112326146	-2.233077027779
7.7	13.059020885286	-3.3539705522597
7.7	13.327367479896	-2.129915020979
1	6	0
1	6	-0.2857142857143
0.93236760237426	6.49128333619	0
1.3454573625665	6.353105459937	0
2	5	-0.2857142857143
2.1684298754346	4.7403793023811	0
3.0226729813355	8.4836106439452	0
2.5164096947204	8.910651700233	-0.41109082170818
3.4071201441719	8.4167381876838	-0.59109415332551
2.5374808587914	8.1383747261781	-0.35604109466584
6.2778911301719	14.3	-0.61136458754231
6.2225356773765	13.691717475418	0
6.5208076177088	13.495118289851	-0.49928801204061
6.7358646795693	14.3	-0.39005656748015
5.7965188279432	13.281940723964	0
5.5320359851605	12.925291312368	0
5.353113789845	13.264183036004	0
5.5919457801018	13.101154188917	-0.33537516396337
7	10	-0.2857142857143
7	10	0
6.5010306427949	10.010760669106	0
6.8196744207924	9.5136576917357	0
7.7	1.1375	0
7.7	1.6430719769933	-0.42557297445049
7.1939383721229	1.4724531054162	0
7.7	1.625	0
6.3572581294301	1.4772201134971	-0.96507376287322
6.5574763981385	0.84898833643366	-0.48332647821142
6.7774291048203	1.7003141153393	-0.4123635555875
6.1433933962903	1.4220674799247	-0.28622251631329
-0.7	9.1984657118068	-1.9278839451739
0.33291529395702	8.3305676904572	-1.2970017952003
-0.7	8.1442617177323	-1.0898260028896
-0.7	7.644268062563	-2.0766032868031
4.508194357046	8.6258793740749	-0.60770874662543
5.0095189690676	8.5009469809039	0
4.7609249278557	8.7686419230913	0
6.2306672701993	2.67753718	0
6.6360398560532	2.4670661479797	-0.44686919005428
6.4910302172834	2.4939022421641	0
6.1550873755842	2.4572757142813	-0.33684154297057
1	1	0
1	1	-0.2857142857143
1.4901571161019	0.99574153349402	0
1.1736530561382	0.72346383359363	0
2	4	-0.2857142857143
2	4	0
1.6440539242474	4.1532454240512	0
7.7	6.9501255673919	-0.74418826283982
7	7	-0.2857142857143
6.7521552376889	6.497772044976	-0.66059363300197
7.7	6.3887218416049	-0.46884913673037
5.9482896260331	7.5800048202495	0
6	8	-0.2857142857143
6.3095291646476	7.6896230263426	0
6.1432247512519	7.3579252770212	-0.41388970597853
3.501272057481	12.437082442362	0
3.3297831413816	12.805427976196	0
3.6823393063421	12.851671876304	0
1.3671388209093	10.633374397873	-0.4152980605108
0.95248763025238	9.835503527633	-1.7808732395437
2.3518021577517	10.495200039554	-0.50930668321109
1.5373497846005	10.021005779616	-0.41781002197689
6.2054585007625	14.3	-1.3884356875417
6.9442913034148	14.3	-0.89278753613404
1	8	-0.2857142857143
0.54167473049383	7.7707286368021	-0.37916050195481
0.44975345341211	8.3808810318019	-0.31136669048163
1.022076618805	8.4121844676845	-0.45670843222423
0.89173681858685	4.6122796653579	0
1	5	-0.2857142857143
1.2386083631299	4.6841794176855	0
1.3923592539172	4.7130963353432	-0.25978315417498
6.4242299347383	5.6840176993625	-0.35514079575845
6	5	-0.2857142857143
6.3424541740313	5.2754910113697	0
6.0447933133998	5.5049876953384	0
5	2	0
5	2	-0.2857142857143
5.5190673049038	1.9208326821789	0
5.2306444928855	1.6547875838902	0
5	13	-0.2857142857143
5.257359886178	13.540476325965	-0.63012071696907
0	6	0
0	6	-0.2857142857143
0.066757795936057	6.5008369551487	0
0.29243888553297	6.1743316976873	0
7	9	-0.2857142857143
6.5033796411008	8.9981073418213	0
6.5607922823332	8.4440251373986	-0.63122800754088
6.811726958696	8.7028726276344	0
7	5	0
7	5	-0.2857142857143
6.4986646723997	4.9192017057136	0
6.7141996182955	5.3303468264748	0
7.7	9.5988491781319	-7.4736716195817
3.1507199964473	10.394874003632	-10
4.8663216648816	7.3792654266676	-10
5.1015502438684	11.553440122249	-6.405163284031
7	7	0
6.9589015254993	7.4884372736447	0
6.761634669635	7.2408783569561	0
6.0574437090791	0.20878539066113	-1.8779478182653
4.9838025543493	-1.3	-2.1179854334408
6.0308685444023	-1.3	-3.5425074203685
6.440522236286	-1.3	-2.0103523001383
3	2	0
3	2	-0.2857142857143
3.0105846506	1.4855923993349	0
2.6480485575569	1.6700894103009	0
5.0527203000088	13.535479310798	-1.5373151531841
5.0246691847863	14.3	-1.036131499603
4.1300067609037	14.3	-1.2024507502556
4.4744197407865	13.547407617085	-0.63586628370479
2.5813517996865	9.6286485974984	-1.0236151505326
2.2955236368793	9.5881134365907	-0.29154811067367
3	10	-0.2857142857143
6.4248505083522	12.522044346884	-0.42559946143008
6.465073985677	12.51782996062	0
6.1644652963082	12.36965297069	0
6.3832046574853	12.135664356038	0
2.9908655166747	12.498069465114	0
1.984703560175	7.5906357794687	-0.50777967523709
1.0508409188237	7.354634772545	-0.95680796450018
1.4515039911109	6.5829264157992	-0.56173008002516
1.3866216751759	7.5118935788728	-0.35488362790971
2.45	14.3	0
2.2168273415577	13.627179222019	0
2.4554693735383	13.497784276817	-0.39727655195048
3.032551925238	13.762466584345	0
6	11	-0.2857142857143
6	11	0
6.4843452951013	10.966514281357	0
6.2440599782187	11.234710090977	0
5.5	-0.5576923076923	0
5.247952850371	-0.29481663567353	0
5.5452342683804	-0.096294524539033	-0.49623355575102
5.1016398375367	-0.61489919294387	-0.38960315167385
2.3232496140345	4.0110297188843	-1.3835068702753
1.6586320571652	5.8268322896535	-1.5213554090482
0.71002746520551	3.976198472286	-1.505315421377
1.3296414347056	4.9089994064226	-0.82629172929831
5.6	14.3	0
4.6510156691765	14.3	-0.56274723813486
-0.090060726359069	5.5363033123106	-0.44581840212762
0	5	-0.2857142857143
-0.38456492153953	5.1805342841446	0
-0.7	5.0205501441189	-0.32507149572551
3	13	-0.2857142857143
5.1848675157348	3.2965660830064	0
5.4046165570399	2.9501485228537	-0.43988698776777
5.486289771732	3.4981838484395	0
5.4682750147717	3.0660382780841	0
0	8	0
0	8	-0.2857142857143
0.5178658825659	8.020802151125	0
0.25864598874121	7.6639427314904	0
6.7098208972434	7.2950601162224	-1.3269022195366
7.7	7.949747446039	-0.91833665053736
7.1577047253729	7.4844276204668	-0.64272934527953
4.5892004575887	3.5369189576522	-0.55981654583505
4.4420188491858	3.4660037233365	0
4.711527897636	3.7375259681419	0
4.3494632088922	3.8023533541114	0
4	6	-0.2857142857143
4	6	0
3.9913416390327	5.4988534517732	0
4.5093195747582	5.724109532591	0
1.4	14.3	0
1.5	13.55769230769	0
0.89284349994875	13.714781914708	0
1.2292962491126	13.670420041977	-0.37788942865261
4	9	-0.2857142857143
4	9	0
4.5502440226935	9.051086551406	0
4.2963154051231	9.3907765114078	0
4.5321110402369	7.5028925212181	-0.60552533206341
3.5085861108931	7.3893844432383	-0.64873189634878
4.0050480592533	7.4977657988521	0
4	8	-0.2857142857143
5.8961095330637	-1.3	-1.0125722125019
4.8982045728458	-1.3	-0.82217786726149
5.2296982103621	-0.31621891710017	-1.0679345669244
4.9010483556055	1.478997710586	0
4.5631533182214	1.9074133665015	-0.41231302454656
5.0320642355688	1.4518180616801	-0.36509190625555
3.5357179442866	0.46434418042464	-0.60031716899974
3.9407498163335	-0.4411178910574	-1.1087857494349
3.2826824657074	-0.47747544834602	-0.50866572047373
2.802260468126	-0.22902113419037	-1.4542342115515
1	13	0
1	13	-0.2857142857143
1.1191337005982	13.329221525091	0
1.4884720276527	13.02962190928	0
-0.21681247778723	8.5792000107362	0
-0.35118339610893	9.0917088673227	0
-0.7	9.0968147603684	-0.35256881313688
-0.7	8.9375	0
0.51662331659314	-0.40156299802931	-0.67799391089861
0.13474046208011	-1.3	-0.85683826964205
-0.16941603187845	-0.57512411281067	-1.4019543009948
6	13	-0.2857142857143
6	13	0
5.8068477026831	12.499749736815	0
6.1890713266052	12.67695534294	0
2.5984255358496	5.4578875982232	-0.67264342113488
2.2172109403706	5.4325217687574	0
2.4824672258873	4.9705265694472	0
2.6598112065826	5.3330483814808	0
-0.7	0.5146532048839	-0.51418317722913
-0.7	1.0492756199945	-0.88024243711367
-0.37698118088761	0.89350663208132	-0.33360419980628
-0.25096134668857	0.95145340086689	-0.90448711690516
6	2	-0.2857142857143
5.4002158317804	1.7678073061348	-0.50898482673054
5.8183999242367	2.5164331321023	-1.0840550371572
-0.13917028340788	5.5182991349521	0
0.31578338747353	5.7567158690792	0
6	12	0
6	12	-0.2857142857143
5.513035862904	11.994753403328	0
1.5285536174902	4.2362319729344	-0.43851980589517
0.57100063419133	12.499134596467	-0.56842257570583
1.2565986295401	13.42724014175	-1.149557674079
1.4486633887383	12.69302170761	-0.31714242590465
6.65	-1.3	0
6.903739311401	-1.3	-1.0953527719967
6.3980205255852	-0.38130956989248	-0.5855507841991
7.2175457166608	-0.5710098692386	-0.51938212652516
3	7	-0.2857142857143
3.5055774955602	6.7395375676091	-1.4094768265058
2.383927159844	7.4535505157878	-1.0620490471275
1	4	-0.2857142857143
1	4	0
1.2222221827385	4.2954008280594	0
0.82345085295407	4.2815033897546	0
5.6	-1.3	0
5.790373644402	-0.65252487431205	-0.38521635467031
[...]
CELL_DATA 5483
SCALARS Coverage double 1
LOOKUP_TABLE default
1.5040916164209 0.7483868652801 1.4052905690574 1.5692512456297 1.4458453228419 0.87743413441628 1.135003727739 0.66859784743444 1.1122714519874 0.21610376610355 1.8396341190742 1.6589872632636 1.4936901747007 0.72774537706682 1.2500582305993 1.7900820492573 0.978028531725 1.1436726219844 0.61525664370844 1.6521674802064 1.4358515603427 1.707601973558 1.8953151810326 1.067644888738 1.5943042749868 1.393432907645 1.2432280262141 0.58858037696947 1.3339990025847 1.6559216317637 1.5709382408344 1.751429809945 1.2114699383591 1.7806891059665 1.4795577055726 1.7710284065344 -0.36681291913796 1.8026031772936 0.2737926535547 1.7493503735881 0.62508040809279 1.3712879506446 1.3907045492545 1.4629969805866 1.2824463595348 0.8926358970924 1.823834017171 1.0365711908338 0.94422683448859 0.57262347684723 0.69336765710351 1.2798920588498 1.3817073537446 1.5279756145016 1.3314770654913 0.95739194500157 1.5019137736967 1.8678405734278 0.86197755314195 1.8383654479632 1.5195745504673 0.63362938506668 1.4256790950061 1.5234994870165 0.73107219812132 1.5844760460131 1.1418411095095 0.63950284814496 1.7141004055835 1.5716114575753 0.8299091989178 1.0908560862067 1.7800546516397 1.6923149512863 1.5366695931752 1.0366151145143 0.62552678709617 1.2684074246765 1.9311762862582 0.64610901445447 1.1561788708587 0.80061136962279 1.5068995159415 1.2177878358391 1.5004794494407 0.99931865664297 0.60896344967313 1.8448445868359 1.7720819639856 1.5542380018241 1.181307249487 1.2732915768634 1.2749847156429 1.2195053707569 1.4607169506157 1.6240831151672 1.5850755076764 0.97716607657209 1.6432210207871 1.6733831763798 1.2959591115812 1.8036148931891 0.96321612745768 1.5991784489081 1.1218349650489 1.5413807883305 0.31954374625198 1.1345913871312 1.8110241290661 1.8813703082997 1.7022458861051 1.2894609994334 1.4775282866175 1.4801629616222 1.1629084948162 0.74542766862846 0.94967865047465 1.0185098224103 1.5635447125113 1.2021075179005 0.95679311698154 1.6169473871559 1.2513614464622 0.43158939171103 1.2676396056213 1.7903430129257 1.0576362989522 1.8047323201271 1.3290221365956 1.5408176795616 1.5010546651353 -0.19754349998725 1.0688345034409 1.4204881926993 0.81790072760233 1.5910560997903 -0.39624127684555 1.354587883937 1.3467067658294 1.8633757418494 0.56105566030892 0.17313225981415 1.7897539268648 1.684591324054 1.5089645782159 1.4201552183669 0.86937675746671 0.70541551974734 0.93752273322893 0.59334725667816 0.37366105605896 1.861968787301 0.82013412228483 1.20724246167 1.3959725142315 1.6357393337174 1.4641805775709 1.0544520460202 1.7364944576286 0.78406384771201 1.4288398889132 0.75480191604039 0.9455911617313 1.5867336043222 1.8711382014364 1.6452690095217 0.59927315467563 1.81553636302 1.4333756669796 1.8015218074623 1.5887106900468 1.1735458976865 1.2876936671254 1.8380159124666 -0.074806476728317 1.8691822498803 1.9152246201473 1.767274076735 1.6883846633739 0.18059855514638 1.5534666652391 0.41016039975077 1.1197772434898 -0.068231926735151 1.2109591968685 1.8678191501157 1.4015019463325 1.5684736553037 1.8291913006067 1.3339409145446 1.8646965123307 1.3296992839222 0.73938441942307 1.601976160842 1.2681924549412 1.0790482180618 1.6418050874271 1.5436323870318 1.4011825541602 1.8546192572456 0.55756319627961 1.926502326574 1.4783965515685 1.501794698175 1.9306941602277 1.6667043913309 1.7036438641993 1.4733616674019 1.0803539915589 -0.41838842994832 1.3783530323214 1.0742669046405 1.1780499987126 1.8926849154762 1.8615467595777 1.8726980588521 1.8445331230664 1.6031689441149 0.86866249508738 0.86053601423404 1.3740696556633 1.733693894183 0.56348593582845 1.8875488678684 0.72848790339754 1.6790810943476 1.5636224250672 0.85711203068546 1.9226099402926 1.159269748887 0.92077936026212 0.88259733853127 -0.12296765054406 1.8659908283085 1.450270925573 1.1686741827585 0.56874743559688 1.7528310294251 1.7099861871546 1.5440020085962 1.7670244983657 0.70542503037692 1.5877646862788 0.97082846892921 1.5819294893162 1.8446401888756 1.3282659664428 1.5338767246189 0.54839792841008 1.6183478559822 0.68963257498451 1.6706244677444 0.46967702422351 0.22269346239038 0.036355917231039 0.45661425767757 0.88521718563657 1.8670199333376 1.3142734545332 1.8735345721401 1.0581743627692 1.0736449915059 1.5423663873748 1.351579253041 1.8117588811921 1.8395695179735 1.4601196849086 1.8609438187809 1.5441493451079 0.74584735366933 1.8623818367309 1.8970650954727 1.5577323870577 1.4308514547405 1.852696799524 1.5591448370126 1.8609795501107 1.5878845112517 1.5908964079638 1.7280208647232 1.6544242638277 1.9489443474126 1.4435875366964 0.54326251425256 0.50990009540694 1.2769879230789 0.97022370952378 1.5764551797482 1.7501778440564 1.3040417046694 1.5350718106763 1.8458624754273 1.7229645332581 0.57989690962642 1.472891823825 1.703188293409 0.72608272637692 0.30707276709803 0.84893612426585 0.50874337586283 0.45690629260733 1.5728664570197 1.4065951709353 1.012634833761 0.82379671295731 1.1199806947559 1.626188136138 1.3062409055069 1.5370570068184 1.110597272101 0.74698770189137 1.5894292757994 1.2731941994865 1.256121728508 0.64300061942289 1.1698127803317 1.5254863389768 1.0815387006186 1.4479870636989 1.1684618111577 1.8233401333528 1.5640801081524 1.5374823568735 1.4223781505949 1.917475370154 1.2687574828583 1.6962906424874 1.5573398646143 0.47332550262076 -0.60692493338308 1.6348675483387 1.2065842121454 0.73997762028563 1.5400629995112 1.5017866535513 1.8084482685086 1.8912698446759 0.96458804697394 -0.56120198701108 0.85466295763882 1.4145258838281 1.2264145424843 -0.2272987757028 1.0496423224273 1.0567374225373 1.4199892456902 0.88359984760272 1.570188463845 1.3747668624261 1.2483777839158 1.5334116771403 1.7156827751131 1.7746917189825 0.60846353416141 1.8834933294508 1.0097727574366 0.13321561193486 1.3142882277458 1.7174392880732 0.50144484692388 1.3058831108659 1.3737509690872 0.72402475286002 1.3794644506355 1.7423179357406 1.4788096346425 0.88300077677462 1.7585540502185 1.6777052041503 1.2611945296417 1.3166832368946 0.97746556751005 1.5043000730465 0.28272478221551 0.58838424402848 1.1537362360041 1.2982441225659 1.5251883779068 0.76875934515233 0.37961559951321 1.8257139864307 1.8865311467326 1.9028230284317 1.6032985737247 1.3586825739247 1.8745081758909 1.826289108731 0.58838996559649 0.83700045595168 1.5255753003333 0.9979766315439 -0.21322688792539 1.5972147767121 1.4175884659353 1.3917750788279 1.5840144338141 1.6195823133515 1.4723592774727 1.4662316076457 1.5632024179876 1.0846366004741 0.83701015444618 0.88502292957001 1.7513831221524 1.9383262639619 1.2470096814054 1.355188862727 1.7176641441178 1.8500898110712 1.2761466336843 1.5109312080806 1.5178734840793 0.66871593466355 1.8318212281701 1.4238495683066 1.4487730541799 0.9628902643584 1.5631224528987 1.8363598828258 -0.36812948621057 1.5742453610545 1.5167845448785 0.53499026290281 1.3999820299194 1.3615802176947 1.0516119816206 0.21005146690154 0.14823629901047 1.5986439751569 0.31939952164187 1.6829393476245 1.3088346904244 1.8107963383176 0.89286084087699 1.746960594823 1.4446251101243 1.7456131684504 1.8110988199055 1.4047015733147 1.1999328844273 1.4299464432716 1.5710508110841 1.2791567659484 1.7540253112678 1.8362886758929 1.5603461926632 1.1373168959725 1.2769347096851 1.1960835277315 1.2418380266258 0.93101316356057 0.69743611047745 1.4556744809618 1.5285656068732 1.7999194609035 1.4761283193634 1.8890310300446 1.3982708381614 1.6966721321868 1.4928015725829 1.8954392776382 1.2555386104128 0.99361932240982 1.599721325141 1.9317562627288 1.5076917912131 0.87227509623258 1.3477472236548 -0.23636997142476 1.8502946775615 0.46887971214787 1.8169735714278 1.4815049557468 0.24277608659647 1.5737420365143 1.3147876290833 1.0698720675077 1.4990635977087 1.7201639693834 1.8541585062491 1.4310686774333 1.4649577872297 1.8061048704235 1.6349761965407 1.3755338520314 0.71433811873806 1.592844558786 1.5716257607433 1.5298452531955 0.66760437652201 0.47772260559409 1.4355118235033 1.2372127533465 1.5075770461802 0.83888098199282 1.8482052384722 1.6200832162567 0.82094297864328 1.934543099612 1.423476782872 1.0538180444527 0.63140292346727 0.83023350856688 0.98283882893267 0.53317627915583 1.697992950038 1.608646170319 -0.008427378002301 1.3425359212862 1.1582787914161 1.4523400283415 1.3444330526254 1.5383802979813 1.5160103685849 1.8058772887354 1.0411826230314 1.599327965541 0.76051378124539 1.074997810176 1.3886002570683 1.6001033180595 1.0970420685672 1.7862288331653 1.622179315733 1.3190033152543 1.598850552972 1.4355287163761 1.668932810502 1.5681719030215 1.6177131213253 1.5847450996747 0.41619911078491 1.3149833373739 1.4402138433725 1.8248171653733 0.77309158432334 1.7987983789546 0.82219326508748 0.89541735679505 1.3387169659563 1.7948529769738 0.87313238596006 -0.68839654074744 1.4299352535225 1.5404644431928 1.2717104862298 1.7008051917689 1.4729888840727 0.66566484341066 0.81988816897419 1.8448292469039 0.9331298949198 1.5895831950812 0.83683042846881 0.62880119702022 1.3607797629473 0.56688841960244 1.5681170786532 1.607365980614 1.5295957511086 0.055537825230299 1.1168504752885 1.6988221339978 1.2002811542514 1.5396450753639 1.4313644299755 1.3879601946113 1.4324611275208 1.066832890367 1.5948446089112 1.5614619065188 1.018528824716 1.0823952068629 0.25497697559672 1.914357378666 0.91988298617898 0.33573036116886 1.7425623710631 1.3287709741246 1.6236058573404 1.702081407665 1.6775251144374 0.65070692550806 0.85104298423358 1.5959702271488 1.3876466137766 1.6573482508999 1.1377420216178 1.4974298148641 0.78274953472683 1.056659361678 0.86724608018213 1.511947612955 1.2383054047932 0.67455050212496 1.8767317392736 1.6605760080264 -0.54593942284825 0.13359140442785 0.89180503168191 1.6479560723491 1.7728891772756 1.5518664183242 1.8444905788166 1.1021153253004 1.4505295200268 0.6151476888901 1.6831993525366 0.37582091995884 1.8992942458046 1.106150075364 1.5672103098096 0.90045583226389 1.6082820253934 1.4998280797863 1.3545494595075 1.433796478008 0.35451241304199 1.862129294913 1.1407068110013 1.4982777984898 0.45442013502342 1.4706877260695 1.5794437650988 0.95310537826367 1.3580990923641 0.87880432282192 1.6963510039078 1.0984473119548 1.4730908093958 1.3789424412387 1.2648123703126 1.8688787939974 0.69303233601477 0.41202862584342 -0.52155672613419 1.7822462556517 1.1240167894217 1.0511002168207 0.75657574123121 1.828444708863 -0.19970574913271 1.6224045657315 1.5800170995075 1.0955751101375 1.0345220533672 1.7891393490288 1.8748844499279 1.4661896122467 1.5297244621136 1.7911965998372 1.6874375665339 1.8552983630498 0.73182777121821 1.4550440815161 1.8540928467454 2.0530573778966 0.70149098748637 1.4570957742218 1.3685313669962 1.4689908806976 1.5774196990541 1.6067323165022 0.62275852693382 1.7431206396258 0.70467065786427 1.1338453295797 1.472051737671 1.927104775777 1.1266322577352 1.4147895367932 0.1148716917583 1.6835030805598 1.6645753509803 1.1435062484736 0.27889253852813 1.3977085481466 0.71299279341473 1.662458759262 1.1819504140031 1.5203298213165 -0.34206858118281 1.4815213924597 0.66773828887804 0.77068788312333 1.8575860752098 1.2744065801201 1.3203653566904 1.5375715846405 0.46277402005893 1.8714070207899 1.8436917555888 1.5199157394457 1.8316024225608 0.66057442619627 1.4842512875479 1.3702880272725 1.5273066270534 1.036531841175 1.796063299254 0.50786307274493 1.2668982174933 1.3868338164536 1.180368731789 0.80434707910966 1.7788768152298 1.5614599598152 1.3918680737403 1.3696510270714 0.70663893361231 1.3890116839482 -0.40944156440755 1.5915773705676 1.0080999365821 -0.2763657201621 0.25851253753794 1.543278428178 1.7394195262171 1.1185387550329 1.3798470353935 1.8689460761001 1.5348788906885 1.0727901950652 1.6244260130748 0.91618947790161 1.190559627641 1.4707744239727 0.97141474793762 0.3469399210283 1.4307851466554 1.4498408256024 1.8603017354008 0.75619623542349 1.6663736245954 1.5371380062896 1.4556998020619 1.56967645352 1.5915387142727 0.19093238540957 0.99010599722204 1.4250020981483 1.0325604364592 1.2361004831708 1.1308917682173 1.7635431753339 1.0536522412584 1.2488299452027 1.4612950689064 1.799597115096 1.7386481461382 1.751609301411 0.63741021744692 1.8688093543514 1.4747825725418 0.75335633533936 1.1873127200049 1.4978666292448 1.6313613287013 1.1113247104418 0.8368196894965 1.4442199815862 1.5729466563929 1.9280036166444 1.4279268139217 1.3022542302697 0.79793484013471 1.4082981659643 1.5642814642237 1.5844967534769 1.8232517797498 1.4127597544124 1.5566631408986 1.1309563651311 1.5445280515881 1.5990608431591 0.8249011725664 1.9060314622021 1.3907578808164 0.5697448708079 1.5995405092608 0.87961502976424 1.5248120590367 1.2212682740604 1.7357921747528 1.2013811065141 1.2089777244771 1.5644661888625 1.143927788554 1.6551274912089 1.8591948372682 1.3191999845147 1.6434228935786 1.4592026029523 0.48235362644366 1.0341806989191 1.7911732505662 1.7292453000367 0.15002100772524 1.5935390957986 -0.54935458538467 1.395580478006 1.7250917052614 1.2997448850342 0.61276562198238 1.7720997163314 -0.70497708219689 1.7364115944999 1.3243337525833 1.4354724409071 0.7318696575938 1.1747810897949 1.3887436230321 1.0433637263422 1.4631727737278 1.0782181060568 1.7407172274506 0.77533785056172 1.423492540942 1.5066989578045 1.2170085398288 1.341681392482 1.5860479185546 1.5671263658557 1.4658711376038 1.0974684298703 0.62136714997839 0.75450052527872 0.63018354250358 1.5326695544158 1.5741419368297 1.5885376702978 1.0681873733055 1.6762086469975 1.5574468595158 1.1030411726616 1.5899289731925 1.4414023021638 1.6002758879316 0.50897253039075 0.96071722260254 1.6051969138546 1.2678049151051 0.9082349964031 1.3086076275612 1.3494041774718 1.0606154975126 1.2764406107212 1.5390174299211 1.5093367540566 1.2026813048293 1.865987328919 1.8283573024971 1.0868069827261 1.3954985415816 0.72533239759604 1.3384955289622 0.67000718330118 1.644798493116 -0.20143695537027 0.67884554282151 1.5350221424174 -0.26940282166 1.66820171902 0.70799910071396 1.2862099893363 1.313586391637 1.4301549730181 0.81830250401382 1.4078719962551 0.47611587565771 1.2484886836589 1.5716416103875 1.2690098389913 1.5496239131325 1.508738415031 0.9733617855521 0.80403296884904 0.43643972141919 0.78111687873832 0.54746090891868 1.839808200282 0.45230661715542 0.92145844469607 1.527010105005 1.2962188620228 1.5411751795396 1.7460670355832 1.5778309299833 1.6002104547138 1.2337002809734 1.3933885420727 1.5181510972454 1.5396448637546 1.694694231302 0.55599640208846 1.5799151430523 1.5677890980057 1.1755609244617 1.1494491165236 1.6543796735007 1.9099583697995 1.6022798733228 1.7197659344937 0.66515628375025 1.2386182363449 1.811088388233 1.6272073293036 1.2860634175871 1.6870648775778 1.0211878930492 1.3762378949135 0.41269144706566 1.7328279695653 1.3032806688653 0.67955878012907 1.4644615074657 1.5216511301164 1.4139460760174 -0.15371323197634 1.2785511158957 1.5805277990576 1.876887426824 0.32529024768452 1.7711424093265 0.81331641573029 0.21879195069935 1.2117857623513 -0.45657270817358 1.7055487276424 1.9170022931907 1.4275132857935 1.002503062652 1.5110428623669 1.7274228442572 0.39431710285922 1.5838993191688 1.4899525620394 0.2238052932209 1.4473509262388 1.3496852711555 1.6409717751565 0.95443405571702 0.53104168802 1.4323842970047 0.61734090051995 1.2593834623128 1.8718730269616 1.3610278497336 1.4970140135123 1.3226333051991 1.6183644219335 0.35346970137437 0.39725649637419 0.97902154465587 2.00965523133 1.1188622311091 0.62377731111533 1.5305616926574 1.5769150875003 1.0534358155056 1.3608204933591 1.2440204677859 1.3451678683563 1.5729103040656 1.4809992089513 0.74089309702692 1.2908027736168 1.3368520407647 1.6165854309828 1.8886932810872 0.60368450947422 0.88321340977683 0.47868254505672 1.516947050785 1.3196673428873 0.79621317444494 0.98660766011857 1.7661526989009 0.49933214946599 1.1880807705514 1.0580367843318 1.2860613939852 1.7451232493495 1.240299581735 1.1500273244936 1.7935389864118 1.8841633166136 1.5369048509221 1.7395406046963 1.6104933620277 1.2360167867583 0.78891374860745 0.74994496328813 1.4881021676547 1.0647646182093 1.1882768747577 1.4909708218512 0.76312024309329 1.6488786489841 -0.14776669060134 1.8077608556548 1.6083649185799 1.3600554986481 0.53680112562833 0.61037645651151 1.760484613316 -0.023735402314389 1.1513647907659 1.3182263709393 0.6089314087367 1.1549637847036 1.8589819046296 1.8068821015005 1.5051065234852 0.66709668485828 1.7124105649447 1.737620009942 0.32020052936185 0.91088215262054 1.6381075989192 1.0102218551873 1.5512944588633 1.5447228422525 0.93851388739468 1.3752964399469 1.232528847002 0.73687723261563 0.64499103553861 0.62272763052099 1.7726184967004 1.8466342471967 2.4788750814016 1.5603435369676 0.88170797101186 1.4401141547779 1.4883654063409 0.93463720481013 1.5098790445217 1.7149231862334 0.499288639652 1.744689704036 0.86534813597407 1.7376401846288 1.5309048283691 0.75649891665202 1.1130052045335 1.5099526608383 1.4038978261682 1.2381702238657 0.89060290501075 1.6517793108831 1.813299828965 0.85114894548677 1.6948372471518 1.7464749569365 0.46587849278173 1.9813363805587 1.4174380604977 1.184638110582 1.0534128203233 1.1213289022637 1.5753388589083 1.4735834914233 1.708670955077 0.88364171377737 1.7738744316965 1.2963767303753 1.430760344677 1.3304330121022 1.0345829920332 0.65515274538585 1.8972787328866 1.8135807359576 1.4348713586549 1.9176150577091 1.0612041826137 1.031431498538 1.5085425871829 1.4978988343968 1.353253808013 1.3560403421547 1.5018040503402 1.0490674936432 1.8037131150128 1.857797695029 1.4062689277623 1.0366030043591 0.80107747689139 1.4162026867578 1.2619295914694 0.31757796463719 1.562045258213 1.721577223151 1.2833867911284 1.8602275668376 1.3528167889745 1.0713416667043 1.8882182397986 1.5174447994279 0.62092000043575 0.73331122711911 1.2824136762086 1.8300128875988 1.1811471649142 1.0236889781841 1.5331154826722 1.3164997050062 1.7177157484404 1.5920791310552 1.2193694344213 1.3570121926615 1.7354449807094 0.88773673508946 1.5981003252922 1.6289560853272 1.8790436277482 1.4842877739264 1.2741948142103 1.7712159474546 1.7471277918024 1.8121767228921 1.5188675540937 1.4592273566651 1.4802581731661 1.6030631195368 1.4715136796658 0.92945734732538 0.032210976900526 0.88865069251042 0.78166015837754 0.76838662031364 1.5798259908253 1.2331231476064 1.7706821313427 1.2353730459723 1.5286325527612 1.266745669257 0.60563260389104 1.7687885785027 1.5479748145215 1.637036066612 -0.37947617809142 1.8506522520322 1.61242665828 1.0339047884088 1.8349016832716 1.1951536087442 0.99807443590375 1.8049963263313 1.2998331453461 0.59664647361416 1.4575382946102 1.1961933282722 1.0983537735675 1.7834316779794 0.94158741591125 1.6145527236563 1.3189735836412 1.3379765834563 0.98195195097154 1.7820419005418 0.22410484662794 0.69470418599391 -0.49456508921878 1.3822017472553 1.4259892653321 0.7876529284009 1.0271461568478 1.5853820541612 1.6749150549481 1.4071019952374 1.6200403253939 0.88170806907179 0.86012094021063 1.8280997168201 1.7499386164387 1.4950006750844 1.5810340010051 1.4558376486358 1.419001628211 0.60120014531918 1.3818677345595 1.6749428048931 -0.14830682718098 1.3409487965026 1.8789241175203 1.4404013234288 1.4115048262012 1.2433063695965 0.87048974086285 0.44919725473975 1.5468337042357 0.75453613903845 1.3774973669827 1.3956140161488 1.5415825538383 1.6021279981581 1.7921537161307 1.8203244195157 0.30661679851107 1.4640036445061 1.1013587645863 0.43341563817254 1.8136180309283 -0.47770145835359 0.57773962538447 1.2671789088841 1.7102336482728 0.90149057946596 1.4942319561416 0.5567166661198 1.4345661120328 1.0256223604382 1.2821738645369 0.97338063334785 1.0243740296332 1.8892966784268 1.4622372452163 0.73368234036982 -0.096705519960373 1.0693950192404 1.3167871257403 1.5530664846119 1.5058083995644 0.95445373471453 1.8435942958598 1.333314187092 1.5025921365643 1.4507403520142 0.73405172598584 1.560152170828 1.5215700822326 1.9386