# vtk DataFile Version 3.0
d-3__ created by libgimli-v1.5.0-1-g5991b6ac
ASCII
DATASET UNSTRUCTURED_GRID
POINTS 5794 double
-63	-117	0
-63	130	0
70	130	0
70	-117	0
-0.7	-1.3	0
-0.7	14.3	0
7.7	14.3	0
7.7	-1.3	0
7	13	0
7	12	0
7	11	0
7	10	0
7	9	0
7	8	0
7	7	0
7	6	0
7	5	0
7	4	0
7	3	0
7	2	0
7	1	0
7	0	0
6	13	0
6	12	0
6	11	0
6	10	0
6	9	0
6	8	0
6	7	0
6	6	0
6	5	0
6	4	0
6	3	0
6	2	0
6	1	0
6	0	0
5	13	0
5	12	0
5	11	0
5	10	0
5	9	0
5	8	0
5	7	0
5	6	0
5	5	0
5	4	0
5	3	0
5	2	0
5	1	0
5	0	0
4	13	0
4	12	0
4	11	0
4	10	0
4	9	0
4	8	0
4	7	0
4	6	0
4	5	0
4	4	0
4	3	0
4	2	0
4	1	0
4	0	0
3	13	0
3	12	0
3	11	0
3	10	0
3	9	0
3	8	0
3	7	0
3	6	0
3	5	0
3	4	0
3	3	0
3	2	0
3	1	0
3	0	0
2	13	0
2	12	0
2	11	0
2	10	0
2	9	0
2	8	0
2	7	0
2	6	0
2	5	0
2	4	0
2	3	0
2	2	0
2	1	0
2	0	0
1	13	0
1	12	0
1	11	0
1	10	0
1	9	0
1	8	0
1	7	0
1	6	0
1	5	0
1	4	0
1	3	0
1	2	0
1	1	0
1	0	0
0	13	0
0	12	0
0	11	0
0	10	0
0	9	0
0	8	0
0	7	0
0	6	0
0	5	0
0	4	0
0	3	0
0	2	0
0	1	0
0	0	0
-63	6.5	0
70	6.5	0
-0.7	6.5	0
3.5	14.3	0
7.7	6.5	0
3.5	-1.3	0
-0.7	10.4	0
-0.7	2.6	0
7.7	2.6	0
7.7	10.4	0
7.7	0.65	0
-0.7	12.35	0
-0.7	8.45	0
-0.7	4.55	0
7.7	8.45	0
-0.7	0.65	0
7.7	4.55	0
7.7	12.35	0
-0.7	9.425	0
-0.7	11.375	0
-0.7	7.475	0
7.7	1.625	0
7.7	3.575	0
7.7	5.525	0
-0.7	3.575	0
7.7	9.425	0
-0.7	5.525	0
7.7	7.475	0
-0.7	1.625	0
7.7	11.375	0
-0.7	-0.325	0
1.4	-1.3	0
0.35	-1.3	0
-0.7	13.325	0
1.4	14.3	0
0.35	14.3	0
7.7	13.325	0
5.6	14.3	0
6.65	14.3	0
7.7	-0.325	0
5.6	-1.3	0
6.65	-1.3	0
-2.428406030255	9.9125	0
9.428406030255	1.1375	0
9.428406030255	11.8625	0
-2.428406030255	-0.8125	0
-1.770453380354	10.8875	0
-2.428406030255	5.0375	0
-2.428406030255	7.9625	0
8.770453380354	0.1625	0
9.428406030255	6.0125	0
9.428406030255	3.0875	0
8.770453380354	10.8875	0
9.428406030255	13.8125	0
-1.770453380354	0.1625	0
-1.568248549459	11.8625	0
-2.428406030255	3.0875	0
-1.770453380354	6.0125	0
-1.770453380354	8.9375	0
8.568248549459	-0.8125	0
8.770453380354	5.0375	0
9.428406030255	7.9625	0
8.770453380354	6.9875	0
8.770453380354	2.1125	0
8.568248549459	9.9125	0
8.770453380354	12.8375	0
-1.568248549459	1.1375	0
-1.544702991184	12.8375	0
-3.397756995162	11.73345338366	0
-1.770453380354	4.0625	0
-1.568248549459	6.9875	0
8.998327289857	-2.595415157585	0
10.39775699516	-0.6834533836578	0
8.568248549459	4.0625	0
8.544702991184	8.9375	0
10.39775699516	10.04154661634	0
-1.544702991184	2.1125	0
-3.397756995162	1.008453383658	0
-1.544374832458	13.8125	0
-2.523587790042	12.37335506915	0
-2.830533391405	6.740817124296	0
9.830533391405	4.309182875704	0
9.523587790042	9.401644930852	0
-2.523587790042	1.648355069148	0
-1.986390431357	15.5530936433	0
2.45	-1.3	0
2.45	14.3	0
4.55	-1.3	0
4.55	14.3	0
1.5	-0.5576923076923	0
1.5	13.55769230769	0
5.5	13.55769230769	0
5.5	-0.5576923076923	0
7.175	-3.124510778943	0
10.78498805133	8.595498780114	0
-3.784988051327	2.454501219887	0
-0.175	16.12578293257	0
-4.095041553598	13.60306507316	0
6.125	-2.438857229686	0
0.875	-3.161360340275	0
0.875	15.43933541678	0
6.125	16.16136034027	0
5.075	-2.232456999107	0
2.975	-3.161360340275	0
1.925	-2.452795948074	0
-0.175	-2.452795948074	0
1.925	15.23254372709	0
4.025	16.16136034027	0
5.075	15.45279594807	0
7.175	15.45279594807	0
4.025	-2.209613556876	0
5.234109330073	-4.197017454671	0
2.975	15.20961568538	0
1.766584618949	17.19729991221	0
4.527276102829	-3.265540383147	0
2.472805699294	16.26547698055	0
3.653905979578	-4.66220213202	0
3.345987997698	17.66078589288	0
-4.79517642819	8.064519440038	0
11.79517642819	2.985480559962	0
-1.995675606656	-2.586013751973	0
8.995675606656	15.58601375197	0
-0.9060891982612	-4.668438484449	0
7.906089198261	17.66843848445	0
10.70932742047	6.9875	0
13.15481642086	10.00497653677	0
-3.70932742047	4.0625	0
-6.15481642086	1.04502346323	0
1.925	-4.540300476682	0
5.26865175894	-7.230874408756	0
5.075	17.54030825961	0
1.734653524795	20.22888938874	0
12.92827720546	7.688871902347	0
-5.928277205459	3.361128097653	0
-7.06070503682	11.43216606369	0
12.35599144784	15.46636854124	0
-5.355991447841	-2.466368541243	0
9.024604221889	-6.092219258436	0
2.612662451605	-7.108634963339	0
-2.095915339816	19.05053382096	0
4.384805359735	20.10214365402	0
11.91015790282	12.8375	0
12.45866906	5.313821735835	0
17.14736139453	8.445332685211	0
-5.458669059999	5.736178264165	0
-10.14736139453	2.604667314789	0
10.7580176675	17.83438774471	0
-3.758017667502	-4.834387744711	0
13.08742292166	-4.120237082485	0
3.723960290303	-11.87809102973	0
3.284414665036	24.86350463687	0
16.79333338244	13.3615943858	0
15.41503408703	5.963224630969	0
-8.663390990204	7.908113800054	0
14.40659944622	3.500026122822	0
-8.258163759596	5.055758094288	0
13.7091079014	0.1559137509367	0
19.27738820785	2.943948951972	0
-5.460533072944	17.19473332961	0
9.037871174264	22.80709553929	0
-2.037871174264	-9.807095539291	0
15.75484934848	19.48314482824	0
-11.99224561383	5.980228852383	0
-8.754849348477	-6.483144828237	0
-9.471834851669	-1.556142889076	0
8.418923706529	-10.85832425756	0
-7.068046524536	24.08717263112	0
-13.35270743047	12.1672092328	0
-17.05374290631	1.021977304346	0
-1.485685920959	23.88215186468	0
18.64359270626	-2.74474963799	0
12.95219584812	-9.012878496437	0
25.6855231522	11.53105753651	0
7.879207166089	-19.69108259794	0
-14.82123524295	-4.850265946439	0
-0.8403033707913	32.82890067924	0
12.97919852012	-15.56984370187	0
-18.68648657823	7.751291857904	0
29.04498373623	-1.023944924439	0
22.26722915014	17.43906920972	0
-2.524984295212	-20.21297323448	0
-63	-55.25	0
9.48068234656	33.12276421471	0
22.81557644542	-12.25079766003	0
-14.68268609672	-16.42073406618	0
70	-55.25	0
-12.30569785478	19.23192429084	0
70	68.25	0
-25.39825612059	2.560070359922	0
15.63574699466	27.69121303436	0
-21.88298495129	17.04136139833	0
-63	68.25	0
-22.35894144708	-4.3554501422	0
34.44965102584	20.54475564628	0
3.498391304649	-36.32471675977	0
3.799250506582	51.27209291061	0
17.73502249447	-26.67134090431	0
38.18221717289	8.147953451592	0
-36.13790887432	-6.285556362459	0
70	-24.375	0
22.18685653087	41.31822027006	0
41.98118545374	-4.773955676671	0
70	37.375	0
-18.29388809707	30.94445937746	0
-13.31783664114	-33.42967257307	0
52.60046962314	5.367446045249	0
-63	37.375	0
44.67383143626	3.037059200176	0
50.89483340738	-3.47708840596	0
46.37946765203	11.88159365138	0
48.73699733942	-19.92696088709	0
61.7505060402	-0.9838351983257	0
70	-8.9375	0
58.66687085756	-12.43715882586	0
-41.92675860719	11.68522938905	0
33.40756621833	-24.08774586316	0
30.15129563728	-53.16263987786	0
46.01552792702	-40.21957817847	0
-63	-24.375	0
3.5	-117	0
3.5	130	0
70	21.9375	0
58.18270073552	16.92606700158	0
47.39787868229	25.82972334749	0
35.92909065434	35.42424495539	0
52.54998443515	43.64013512391	0
36.37749777582	55.43723808916	0
49.72205759358	-60.95652666882	0
-32.52371386107	-26.41158202804	0
-10.04183736583	-64.68772778196	0
70	-86.125	0
27.07345411024	-89.35965028637	0
-30.64021806291	-51.04584218604	0
-32.1629713589	59.7642297138	0
-39.90930543023	-87.41364132898	0
-35.54431520314	27.9828589324	0
-37.91770420005	99.125	0
38.98167248699	99.125	0
-63	-117	-70.2
-63	130	-70.2
70	130	-70.2
70	-117	-70.2
-0.7	-1.3	-5.2
-0.7	14.3	-5.2
7.7	14.3	-5.2
7.7	-1.3	-5.2
7.7	6.5	-5.2
-63	6.5	-70.2
70	6.5	-70.2
-0.7	6.5	-5.2
38.98167248699	130	0
-29.75	-117	0
-29.75	130	0
-63	-87.41364132898	0
36.75	-117	0
-63	99.125	0
3.5	14.3	-5.2
3.5	-1.3	-5.2
-63	-55.25	-70.2
70	-55.25	-70.2
-5.5346266711594	3.1869514289376	-70.2
70	68.25	-70.2
3.5	130	-70.2
7.7	2.6	-5.2
7.7	10.4	-5.2
-0.7	10.4	-5.2
-0.7	2.6	-5.2
-0.7	8.135021127785	-2.778310290265
-0.7	5.0330863614375	-2.7777090642106
7.7	4.9503836296913	-2.6365364443166
7.7	8.134448775619	-2.8878432334887
7.7	-1.3	-2.6
7.7	14.3	-2.6
-0.7	14.3	-2.6
-0.7	-1.3	-2.6
7.7	1.8699376408635	-2.56590373823
7.7	11.735585150571	-2.6259282619388
-0.7	11.314208141211	-2.432564348341
-0.7	1.7082308885411	-2.4359874411889
70	26.600693802947	-41.825224993393
70	-20.855690456895	-37.813727377126
2.8028127173167	14.3	-2.9155874584314
3.1574802051071	-1.3	-2.8841203647705
5.0991822009262	14.3	-2.076799841922
5.1506516664817	-1.3	-2.0789755320912
7.7	0.10423972518311	-1.963801811548
7.7	13.064038332194	-1.6569531252527
-0.7	12.9953319702	-1.629391123784
-0.7	0.0071775727283702	-1.6300460625947
0.65254635298558	14.3	-2.2716688124341
1.0160649734743	-1.3	-1.9461808560939
-63	68.25	-70.2
3.5	-117	-70.2
-0.7	9.1834228367217	-1.2487056022089
-0.7	6.7756970838446	-1.3111934902149
-0.7	3.9061873146594	-1.2498395287784
7.7	3.9678903570137	-1.3936943512684
7.7	6.0000860529362	-1.4366564745504
7.7	8.8264490203782	-1.4277768484938
70	15.272700207017	-19.094722989681
7.7	2.20136798477	-1.0860573415403
7.7	11.054605827213	-1.0020066543719
-0.7	11.001161025928	-0.92575197145325
-0.7	2.0028085819141	-0.92701979238148
7.7	-1.3	-1.3
7.7	14.3	-1.3
4.0323073464157	-2.8428522760498	-1.4776148759241
4.1572059108449	8.208618116426	-5.2
-1.5096963483708	-64.511174177047	-70.2
-10.092991517063	6.9965961270405	-9.3059091800766
-27.073366274297	-25.422974873975	-70.2
4.245759132147	0.15348134737827	-1.5805629645477
-12.80738232815	-0.82631947902447	-5.9367524719152
3.3455537944329	2.8508439210626	-5.2
-2.737523379368	12.996572221485	-2.7121818352059
0.62718888473031	9.7370003482842	-0.97277280661987
1.7869680659309	17.309275863937	-3.8751137585705
-63	-12.147739463345	-33.988608716004
2.2241640024945	14.3	-1.0471647463285
0.058546556305527	71.596811725297	-70.2
-4.8951368435429	8.2830334407169	-5.0592361843062
4.7249778226509	11.501889278707	-5.2
42.880800184695	25.731410512448	-70.2
26.393056535263	30.20255765919	-38.571045431459
-11.437700193156	-9.0313329328005	-6.2654006309106
1.7587083298301	0.39622761262419	-5.2
12.621007503072	4.7565728431667	-4.8178407048985
-14.917611353676	23.975729356804	-22.854873054089
5.9294197881502	9.5260818373212	-2.582598422231
-3.6811176227619	4.1134600314942	-9.3164657660844
5.1701165439153	5.5909860214993	-5.2
1.5987644321305	15.015975778137	-21.306328140989
5.7308949562744	5.2971906954092	-2.661091569825
1.7157407336879	2.8254541767609	-2.911649875023
11.196752913155	1.3879158778102	-2.7792905729407
[...]
CELL_DATA 29224
SCALARS Marker double 1
LOOKUP_TABLE default
-1 -1 -1 -1 -1 -1 -1 -1 0 0 0 0 0 0 0 0 -1 -1 -1 -1 -1 -1 -1 -1 1 1 1 1 1 1 1 1 -1 -1 -1 -1 -1 -1 -1 -1 -1 -1 -1 -1 -1 -1 -1 -1 2 2 2 2 2 2 2 2 3 3 3 3 3 3 3 3 4 4 4 4 4 4 4 4 -1 -1 -1 -1 -1 -1 -1 -1 5 5 5 5 5 5 5 5 6 6 6 6 6 6 6 6 -1 -1 -1 -1 -1 -1 -1 -1 -1 -1 -1 -1 -1 -1 -1 -1 7 7 7 7 7 7 7 7 -1 -1 -1 -1 -1 -1 -1 -1 -1 -1 -1 -1 -1 -1 -1 -1 -1 -1 -1 -1 -1 -1 -1 -1 8 8 8 8 8 8 8 8 -1 -1 -1 -1 -1 -1 -1 -1 -1 -1 -1 -1 -1 -1 -1 -1 -1 -1 -1 -1 -1 -1 -1 -1 -1 -1 -1 -1 -1 -1 -1 -1 -1 -1 -1 -1 -1 -1 -1 -1 -1 -1 -1 -1 -1 -1 -1 -1 9 9 9 9 9 9 9 9 -1 -1 -1 -1 -1 -1 -1 -1 -1 -1 -1 -1 -1 -1 -1 -1 -1 -1 -1 -1 -1 -1 -1 -1 -1 -1 -1 -1 -1 -1 -1 -1 -1 -1 -1 -1 -1 -1 -1 -1 -1 -1 -1 -1 -1 -1 -1 -1 -1 -1 -1 -1 -1 -1 -1 -1 -1 -1 -1 -1 -1 -1 -1 -1 -1 -1 -1 -1 -1 -1 -1 -1 10 10 10 10 10 10 10 10 11 11 11 11 11 11 11 11 -1 -1 -1 -1 -1 -1 -1 -1 12 12 12 12 12 12 12 12 13 13 13 13 13 13 13 13 -1 -1 -1 -1 -1 -1 -1 -1 -1 -1 -1 -1 -1 -1 -1 -1 -1 -1 -1 -1 -1 -1 -1 -1 -1 -1 -1 -1 -1 -1 -1 -1 -1 -1 -1 -1 -1 -1 -1 -1 -1 -1 -1 -1 -1 -1 -1 -1 -1 -1 -1 -1 -1 -1 -1 -1 -1 -1 -1 -1 -1 -1 -1 -1 14 14 14 14 14 14 14 14 -1 -1 -1 -1 -1 -1 -1 -1 -1 -1 -1 -1 -1 -1 -1 -1 -1 -1 -1 -1 -1 -1 -1 -1 -1 -1 -1 -1 -1 -1 -1 -1 15 15 15 15 15 15 15 15 -1 -1 -1 -1 -1 -1 -1 -1 -1 -1 -1 -1 -1 -1 -1 -1 -1 -1 -1 -1 -1 -1 -1 -1 -1 -1 -1 -1 -1 -1 -1 -1 -1 -1 -1 -1 -1 -1 -1 -1 -1 -1 -1 -1 -1 -1 -1 -1 -1 -1 -1 -1 -1 -1 -1 -1 -1 -1 -1 -1 -1 -1 -1 -1 16 16 16 16 16 16 16 16 17 17 17 17 17 17 17 17 -1 -1 -1 -1 -1 -1 -1 -1 -1 -1 -1 -1 -1 -1 -1 -1 18 18 18 18 18 18 18 18 -1 -1 -1 -1 -1 -1 -1 -1 -1 -1 -1 -1 -1 -1 -1 -1 -1 -1 -1 -1 -1 -1 -1 -1 -1 -1 -1 -1 -1 -1 -1 -1 -1 -1 -1 -1 -1 -1 -1 -1 -1 -1 -1 -1 -1 -1 -1 -1 -1 -1 -1 -1 -1 -1 -1 -1 -1 -1 -1 -1 -1 -1 -1 -1 -1 -1 -1 -1 -1 -1 -1 -1 19 19 19 19 19 19 19 19 -1 -1 -1 -1 -1 -1 -1 -1 -1 -1 -1 -1 -1 -1 -1 -1 -1 -1 -1 -1 -1 -1 -1 -1 -1 -1 -1 -1 -1 -1 -1 -1 -1 -1 -1 -1 -1 -1 -1 -1 -1 -1 -1 -1 -1 -1 -1 -1 20 20 20 20 20 20 20 20 21 21 21 21 21 21 21 21 22 22 22 22 22 22 22 22 23 23 23 23 23 23 23 23 -1 -1 -1 -1 -1 -1 -1 -1 24 24 24 24 24 24 24 24 -1 -1 -1 -1 -1 -1 -1 -1 -1 -1 -1 -1 -1 -1 -1 -1 25 25 25 25 25 25 25 25 -1 -1 -1 -1 -1 -1 -1 -1 26 26 26 26 26 26 26 26 -1 -1 -1 -1 -1 -1 -1 -1 -1 -1 -1 -1 -1 -1 -1 -1 -1 -1 -1 -1 -1 -1 -1 -1 -1 -1 -1 -1 -1 -1 -1 -1 27 27 27 27 27 27 27 27 -1 -1 -1 -1 -1 -1 -1 -1 28 28 28 28 28 28 28 28 29 29 29 29 29 29 29 29 -1 -1 -1 -1 -1 -1 -1 -1 30 30 30 30 30 30 30 30 -1 -1 -1 -1 -1 -1 -1 -1 -1 -1 -1 -1 -1 -1 -1 -1 -1 -1 -1 -1 -1 -1 -1 -1 31 31 31 31 31 31 31 31 -1 -1 -1 -1 -1 -1 -1 -1 -1 -1 -1 -1 -1 -1 -1 -1 32 32 32 32 32 32 32 32 33 33 33 33 33 33 33 33 -1 -1 -1 -1 -1 -1 -1 -1 -1 -1 -1 -1 -1 -1 -1 -1 -1 -1 -1 -1 -1 -1 -1 -1 -1 -1 -1 -1 -1 -1 -1 -1 -1 -1 -1 -1 -1 -1 -1 -1 -1 -1 -1 -1 -1 -1 -1 -1 -1 -1 -1 -1 -1 -1 -1 -1 -1 -1 -1 -1 -1 -1 -1 -1 34 34 34 34 34 34 34 34 35 35 35 35 35 35 35 35 36 36 36 36 36 36 36 36 -1 -1 -1 -1 -1 -1 -1 -1 37 37 37 37 37 37 37 37 38 38 38 38 38 38 38 38 39 39 39 39 39 39 39 39 40 40 40 40 40 40 40 40 -1 -1 -1 -1 -1 -1 -1 -1 41 41 41 41 41 41 41 41 -1 -1 -1 -1 -1 -1 -1 -1 -1 -1 -1 -1 -1 -1 -1 -1 42 42 42 42 42 42 42 42 43 43 43 43 43 43 43 43 44 44 44 44 44 44 44 44 -1 -1 -1 -1 -1 -1 -1 -1 -1 -1 -1 -1 -1 -1 -1 -1 -1 -1 -1 -1 -1 -1 -1 -1 -1 -1 -1 -1 -1 -1 -1 -1 -1 -1 -1 -1 -1 -1 -1 -1 -1 -1 -1 -1 -1 -1 -1 -1 -1 -1 -1 -1 -1 -1 -1 -1 -1 -1 -1 -1 -1 -1 -1 -1 45 45 45 45 45 45 45 45 46 46 46 46 46 46 46 46 -1 -1 -1 -1 -1 -1 -1 -1 47 47 47 47 47 47 47 47 -1 -1 -1 -1 -1 -1 -1 -1 48 48 48 48 48 48 48 48 -1 -1 -1 -1 -1 -1 -1 -1 -1 -1 -1 -1 -1 -1 -1 -1 -1 -1 -1 -1 -1 -1 -1 -1 -1 -1 -1 -1 -1 -1 -1 -1 49 49 49 49 49 49 49 49 -1 -1 -1 -1 -1 -1 -1 -1 -1 -1 -1 -1 -1 -1 -1 -1 -1 -1 -1 -1 -1 -1 -1 -1 -1 -1 -1 -1 -1 -1 -1 -1 -1 -1 -1 -1 -1 -1 -1 -1 50 50 50 50 50 50 50 50 51 51 51 51 51 51 51 51 -1 -1 -1 -1 -1 -1 -1 -1 -1 -1 -1 -1 -1 -1 -1 -1 -1 -1 -1 -1 -1 -1 -1 -1 52 52 52 52 52 52 52 52 53 53 53 53 53 53 53 53 54 54 54 54 54 54 54 54 -1 -1 -1 -1 -1 -1 -1 -1 -1 -1 -1 -1 -1 -1 -1 -1 55 55 55 55 55 55 55 55 -1 -1 -1 -1 -1 -1 -1 -1 -1 -1 -1 -1 -1 -1 -1 -1 -1 -1 -1 -1 -1 -1 -1 -1 -1 -1 -1 -1 -1 -1 -1 -1 56 56 56 56 56 56 56 56 57 57 57 57 57 57 57 57 58 58 58 58 58 58 58 58 59 59 59 59 59 59 59 59 -1 -1 -1 -1 -1 -1 -1 -1 60 60 60 60 60 60 60 60 61 61 61 61 61 61 61 61 -1 -1 -1 -1 -1 -1 -1 -1 -1 -1 -1 -1 -1 -1 -1 -1 62 62 62 62 62 62 62 62 -1 -1 -1 -1 -1 -1 -1 -1 -1 -1 -1 -1 -1 -1 -1 -1 -1 -1 -1 -1 -1 -1 -1 -1 63 63 63 63 63 63 63 63 64 64 64 64 64 64 64 64 -1 -1 -1 -1 -1 -1 -1 -1 65 65 65 65 65 65 65 65 -1 -1 -1 -1 -1 -1 -1 -1 -1 -1 -1 -1 -1 -1 -1 -1 66 66 66 66 66 66 66 66 -1 -1 -1 -1 -1 -1 -1 -1 -1 -1 -1 -1 -1 -1 -1 -1 -1 -1 -1 -1 -1 -1 -1 -1 67 67 67 67 67 67 67 67 -1 -1 -1 -1 -1 -1 -1 -1 -1 -1 -1 -1 -1 -1 -1 -1 -1 -1 -1 -1 -1 -1 -1 -1 -1 -1 -1 -1 -1 -1 -1 -1 -1 -1 -1 -1 -1 -1 -1 -1 -1 -1 -1 -1 -1 -1 -1 -1 -1 -1 -1 -1 -1 -1 -1 -1 -1 -1 -1 -1 -1 -1 -1 -1 -1 -1 -1 -1 -1 -1 -1 -1 -1 -1 -1 -1 -1 -1 -1 -1 68 68 68 68 68 68 68 68 -1 -1 -1 -1 -1 -1 -1 -1 -1 -1 -1 -1 -1 -1 -1 -1 -1 -1 -1 -1 -1 -1 -1 -1 69 69 69 69 69 69 69 69 -1 -1 -1 -1 -1 -1 -1 -1 70 70 70 70 70 70 70 70 -1 -1 -1 -1 -1 -1 -1 -1 71 71 71 71 71 71 71 71 -1 -1 -1 -1 -1 -1 -1 -1 -1 -1 -1 -1 -1 -1 -1 -1 -1 -1 -1 -1 -1 -1 -1 -1 72 72 72 72 72 72 72 72 -1 -1 -1 -1 -1 -1 -1 -1 -1 -1 -1 -1 -1 -1 -1 -1 73 73 73 73 73 73 73 73 -1 -1 -1 -1 -1 -1 -1 -1 74 74 74 74 74 74 74 74 -1 -1 -1 -1 -1 -1 -1 -1 -1 -1 -1 -1 -1 -1 -1 -1 -1 -1 -1 -1 -1 -1 -1 -1 -1 -1 -1 -1 -1 -1 -1 -1 -1 -1 -1 -1 -1 -1 -1 -1 -1 -1 -1 -1 -1 -1 -1 -1 -1 -1 -1 -1 -1 -1 -1 -1 75 75 75 75 75 75 75 75 -1 -1 -1 -1 -1 -1 -1 -1 -1 -1 -1 -1 -1 -1 -1 -1 -1 -1 -1 -1 -1 -1 -1 -1 -1 -1 -1 -1 -1 -1 -1 -1 -1 -1 -1 -1 -1 -1 -1 -1 -1 -1 -1 -1 -1 -1 -1 -1 76 76 76 76 76 76 76 76 -1 -1 -1 -1 -1 -1 -1 -1 -1 -1 -1 -1 -1 -1 -1 -1 -1 -1 -1 -1 -1 -1 -1 -1 -1 -1 -1 -1 -1 -1 -1 -1 77 77 77 77 77 77 77 77 -1 -1 -1 -1 -1 -1 -1 -1 -1 -1 -1 -1 -1 -1 -1 -1 78 78 78 78 78 78 78 78 -1 -1 -1 -1 -1 -1 -1 -1 -1 -1 -1 -1 -1 -1 -1 -1 -1 -1 -1 -1 -1 -1 -1 -1 -1 -1 -1 -1 -1 -1 -1 -1 -1 -1 -1 -1 -1 -1 -1 -1 -1 -1 -1 -1 -1 -1 -1 -1 -1 -1 -1 -1 -1 -1 -1 -1 -1 -1 -1 -1 -1 -1 -1 -1 79 79 79 79 79 79 79 79 -1 -1 -1 -1 -1 -1 -1 -1 80 80 80 80 80 80 80 80 -1 -1 -1 -1 -1 -1 -1 -1 -1 -1 -1 -1 -1 -1 -1 -1 81 81 81 81 81 81 81 81 -1 -1 -1 -1 -1 -1 -1 -1 -1 -1 -1 -1 -1 -1 -1 -1 -1 -1 -1 -1 -1 -1 -1 -1 -1 -1 -1 -1 -1 -1 -1 -1 -1 -1 -1 -1 -1 -1 -1 -1 -1 -1 -1 -1 -1 -1 -1 -1 -1 -1 -1 -1 -1 -1 -1 -1 -1 -1 -1 -1 -1 -1 -1 -1 -1 -1 -1 -1 -1 -1 -1 -1 82 82 82 82 82 82 82 82 -1 -1 -1 -1 -1 -1 -1 -1 -1 -1 -1 -1 -1 -1 -1 -1 83 83 83 83 83 83 83 83 -1 -1 -1 -1 -1 -1 -1 -1 84 84 84 84 84 84 84 84 -1 -1 -1 -1 -1 -1 -1 -1 85 85 85 85 85 85 85 85 86 86 86 86 86 86 86 86 87 87 87 87 87 87 87 87 -1 -1 -1 -1 -1 -1 -1 -1 -1 -1 -1 -1 -1 -1 -1 -1 -1 -1 -1 -1 -1 -1 -1 -1 -1 -1 -1 -1 -1 -1 -1 -1 88 88 88 88 88 88 88 88 -1 -1 -1 -1 -1 -1 -1 -1 -1 -1 -1 -1 -1 -1 -1 -1 -1 -1 -1 -1 -1 -1 -1 -1 -1 -1 -1 -1 -1 -1 -1 -1 89 89 89 89 89 89 89 89 -1 -1 -1 -1 -1 -1 -1 -1 90 90 90 90 90 90 90 90 91 91 91 91 91 91 91 91 -1 -1 -1 -1 -1 -1 -1 -1 92 92 92 92 92 92 92 92 -1 -1 -1 -1 -1 -1 -1 -1 -1 -1 -1 -1 -1 -1 -1 -1 93 93 93 93 93 93 93 93 -1 -1 -1 -1 -1 -1 -1 -1 -1 -1 -1 -1 -1 -1 -1 -1 94 94 94 94 94 94 94 94 -1 -1 -1 -1 -1 -1 -1 -1 -1 -1 -1 -1 -1 -1 -1 -1 -1 -1 -1 -1 -1 -1 -1 -1 95 95 95 95 95 95 95 95 96 96 96 96 96 96 96 96 -1 -1 -1 -1 -1 -1 -1 -1 97 97 97 97 97 97 97 97 -1 -1 -1 -1 -1 -1 -1 -1 98 98 98 98 98 98 98 98 -1 -1 -1 -1 -1 -1 -1 -1 99 99 99 99 99 99 99 99 -1 -1 -1 -1 -1 -1 -1 -1 -1 -1 -1 -1 -1 -1 -1 -1 100 100 100 100 100 100 100 100 -1 -1 -1 -1 -1 -1 -1 -1 -1 -1 -1 -1 -1 -1 -1 -1 101 101 101 101 101 101 101 101 102 102 102 102 102 102 102 102 103 103 103 103 103 103 103 103 -1 -1 -1 -1 -1 -1 -1 -1 104 104 104 104 104 104 104 104 105 105 105 105 105 105 105 105 -1 -1 -1 -1 -1 -1 -1 -1 -1 -1 -1 -1 -1 -1 -1 -1 -1 -1 -1 -1 -1 -1 -1 -1 -1 -1 -1 -1 -1 -1 -1 -1 -1 -1 -1 -1 -1 -1 -1 -1 -1 -1 -1 -1 -1 -1 -1 -1 106 106 106 106 106 106 106 106 -1 -1 -1 -1 -1 -1 -1 -1 107 107 107 107 107 107 107 107 108 108 108 108 108 108 108 108 -1 -1 -1 -1 -1 -1 -1 -1 109 109 109 109 109 109 109 109 -1 -1 -1 -1 -1 -1 -1 -1 -1 -1 -1 -1 -1 -1 -1 -1 110 110 110 110 110 110 110 110 -1 -1 -1 -1 -1 -1 -1 -1 -1 -1 -1 -1 -1 -1 -1 -1 -1 -1 -1 -1 -1 -1 -1 -1 111 111 111 111 111 111 111 111 112 112 112 112 112 112 112 112 -1 -1 -1 -1 -1 -1 -1 -1 -1 -1 -1 -1 -1 -1 -1 -1 -1 -1 -1 -1 -1 -1 -1 -1 -1 -1 -1 -1 -1 -1 -1 -1 -1 -1 -1 -1 -1 -1 -1 -1 -1 -1 -1 -1 -1 -1 -1 -1 113 113 113 113 113 113 113 113 114 114 114 114 114 114 114 114 -1 -1 -1 -1 -1 -1 -1 -1 -1 -1 -1 -1 -1 -1 -1 -1 -1 -1 -1 -1 -1 -1 -1 -1 -1 -1 -1 -1 -1 -1 -1 -1 115 115 115 115 115 115 115 115 -1 -1 -1 -1 -1 -1 -1 -1 -1 -1 -1 -1 -1 -1 -1 -1 116 116 116 116 116 116 116 116 -1 -1 -1 -1 -1 -1 -1 -1 -1 -1 -1 -1 -1 -1 -1 -1 117 117 117 117 117 117 117 117 118 118 118 118 118 118 118 118 -1 -1 -1 -1 -1 -1 -1 -1 -1 -1 -1 -1 -1 -1 -1 -1 119 119 119 119 119 119 119 119 120 120 120 120 120 120 120 120 -1 -1 -1 -1 -1 -1 -1 -1 -1 -1 -1 -1 -1 -1 -1 -1 -1 -1 -1 -1 -1 -1 -1 -1 121 121 121 121 121 121 121 121 122 122 122 122 122 122 122 122 -1 -1 -1 -1 -1 -1 -1 -1 123 123 123 123 123 123 123 123 -1 -1 -1 -1 -1 -1 -1 -1 -1 -1 -1 -1 -1 -1 -1 -1 -1 -1 -1 -1 -1 -1 -1 -1 -1 -1 -1 -1 -1 -1 -1 -1 124 124 124 124 124 124 124 124 125 125 125 125 125 125 125 125 -1 -1 -1 -1 -1 -1 -1 -1 -1 -1 -1 -1 -1 -1 -1 -1 126 126 126 126 126 126 126 126 -1 -1 -1 -1 -1 -1 -1 -1 127 127 127 127 127 127 127 127 -1 -1 -1 -1 -1 -1 -1 -1 -1 -1 -1 -1 -1 -1 -1 -1 128 128 128 128 128 128 128 128 -1 -1 -1 -1 -1 -1 -1 -1 -1 -1 -1 -1 -1 -1 -1 -1 -1 -1 -1 -1 -1 -1 -1 -1 129 129 129 129 129 129 129 129 -1 -1 -1 -1 -1 -1 -1 -1 130 130 130 130 130 130 130 130 -1 -1 -1 -1 -1 -1 -1 -1 131 131 131 131 131 131 131 131 -1 -1 -1 -1 -1 -1 -1 -1 132 132 132 132 132 132 132 132 -1 -1 -1 -1 -1 -1 -1 -1 133 133 133 133 133 133 133 133 134 134 134 134 134 134 134 134 135 135 135 135 135 135 135 135 136 136 136 136 136 136 136 136 -1 -1 -1 -1 -1 -1 -1 -1 137 137 137 137 137 137 137 137 138 138 138 138 138 138 138 138 -1 -1 -1 -1 -1 -1 -1 -1 -1 -1 -1 -1 -1 -1 -1 -1 139 139 139 139 139 139 139 139 -1 -1 -1 -1 -1 -1 -1 -1 -1 -1 -1 -1 -1 -1 -1 -1 -1 -1 -1 -1 -1 -1 -1 -1 -1 -1 -1 -1 -1 -1 -1 -1 140 140 140 140 140 140 140 140 -1 -1 -1 -1 -1 -1 -1 -1 -1 -1 -1 -1 -1 -1 -1 -1 -1 -1 -1 -1 -1 -1 -1 -1 141 141 141 141 141 141 141 141 142 142 142 142 142 142 142 142 143 143 143 143 143 143 143 143 144 144 144 144 144 144 144 144 -1 -1 -1 -1 -1 -1 -1 -1 -1 -1 -1 -1 -1 -1 -1 -1 145 145 145 145 145 145 145 145 146 146 146 146 146 146 146 146 -1 -1 -1 -1 -1 -1 -1 -1 147 147 147 147 147 147 147 147 -1 -1 -1 -1 -1 -1 -1 -1 -1 -1 -1 -1 -1 -1 -1 -1 148 148 148 148 148 148 148 148 -1 -1 -1 -1 -1 -1 -1 -1 -1 -1 -1 -1 -1 -1 -1 -1 -1 -1 -1 -1 -1 -1 -1 -1 149 149 149 149 149 149 149 149 150 150 150 150 150 150 150 150 151 151 151 151 151 151 151 151 152 152 152 152 152 152 152 152 -1 -1 -1 -1 -1 -1 -1 -1 -1 -1 -1 -1 -1 -1 -1 -1 153 153 153 153 153 153 153 153 154 154 154 154 154 154 154 154 155 155 155 155 155 155 155 155 156 156 156 156 156 156 156 156 -1 -1 -1 -1 -1 -1 -1 -1 -1 -1 -1 -1 -1 -1 -1 -1 157 157 157 157 157 157 157 157 158 158 158 158 158 158 158 158 159 159 159 159 159 159 159 159 -1 -1 -1 -1 -1 -1 -1 -1 -1 -1 -1 -1 -1 -1 -1 -1 -1 -1 -1 -1 -1 -1 -1 -1 -1 -1 -1 -1 -1 -1 -1 -1 -1 -1 -1 -1 -1 -1 -1 -1 160 160 160 160 160 160 160 160 -1 -1 -1 -1 -1 -1 -1 -1 -1 -1 -1 -1 -1 -1 -1 -1 161 161 161 161 161 161 161 161 -1 -1 -1 -1 -1 -1 -1 -1 -1 -1 -1 -1 -1 -1 -1 -1 162 162 162 162 162 162 162 162 -1 -1 -1 -1 -1 -1 -1 -1 -1 -1 -1 -1 -1 -1 -1 -1 -1 -1 -1 -1 -1 -1 -1 -1 -1 -1 -1 -1 -1 -1 -1 -1 -1 -1 -1 -1 -1 -1 -1 -1 163 163 163 163 163 163 163 163 -1 -1 -1 -1 -1 -1 -1 -1 -1 -1 -1 -1 -1 -1 -1 -1 164 164 164 164 164 164 164 164 -1 -1 -1 -1 -1 -1 -1 -1 -1 -1 -1 -1 -1 -1 -1 -1 -1 -1 -1 -1 -1 -1 -1 -1 -1 -1 -1 -1 -1 -1 -1 -1 -1 -1 -1 -1 -1 -1 -1 -1 -1 -1 -1 -1 -1 -1 -1 -1 -1 -1 -1 -1 -1 -1 -1 -1 -1 -1 -1 -1 -1 -1 -1 -1 165 165 165 165 165 165 165 165 166 166 166 166 166 166 166 166 -1 -1 -1 -1 -1 -1 -1 -1 167 167 167 167 167 167 167 167 168 168 168 168 168 168 168 168 169 169 169 169 169 169 169 169 -1 -1 -1 -1 -1 -1 -1 -1 -1 -1 -1 -1 -1 -1 -1 -1 -1 -1 -1 -1 -1 -1 -1 -1 170 170 170 170 170 170 170 170 -1 -1 -1 -1 -1 -1 -1 -1 -1 -1 -1 -1 -1 -1 -1 -1 -1 -1 -1 -1 -1 -1 -1 -1 -1 -1 -1 -1 -1 -1 -1 -1 171 171 171 171 171 171 171 171 -1 -1 -1 -1 -1 -1 -1 -1 -1 -1 -1 -1 -1 -1 -1 -1 -1 -1 -1 -1 -1 -1 -1 -1 -1 -1 -1 -1 -1 -1 -1 -1 -1 -1 -1 -1 -1 -1 -1 -1 -1 -1 -1 -1 -1 -1 -1 -1 -1 -1 -1 -1 -1 -1 -1 -1 -1 -1 -1 -1 -1 -1 -1 -1 172 172 172 172 172 172 172 172 -1 -1 -1 -1 -1 -1 -1 -1 173 173 173 173 173 173 173 173 -1 -1 -1 -1 -1 -1 -1 -1 174 174 174 174 174 174 174 174 -1 -1 -1 -1 -1 -1 -1 -1 -1 -1 -1 -1 -1 -1 -1 -1 175 175 175 175 175 175 175 175 -1 -1 -1 -1 -1 -1 -1 -1 176 176 176 176 176 176 176 176 177 177 177 177 177 177 177 177 178 178 178 178 178 178 178 178 -1 -1 -1 -1 -1 -1 -1 -1 179 179 179 179 179 179 179 179 -1 -1 -1 -1 -1 -1 -1 -1 -1 -1 -1 -1 -1 -1 -1 -1 -1 -1 -1 -1 -1 -1 -1 -1 -1 -1 -1 -1 -1 -1 -1 -1 180 180 180 180 180 180 180 180 -1 -1 -1 -1 -1 -1 -1 -1 -1 -1 -1 -1 -1 -1 -1 -1 181 181 181 181 181 181 181 181 182 182 182 182 182 182 182 182 -1 -1 -1 -1 -1 -1 -1 -1 -1 -1 -1 -1 -1 -1 -1 -1 -1 -1 -1 -1 -1 -1 -1 -1 -1 -1 -1 -1 -1 -1 -1 -1 -1 -1 -1 -1 -1 -1 -1 -1 183 183 183 183 183 183 183 183 -1 -1 -1 -1 -1 -1 -1 -1 184 184 184 184 184 184 184 184 -1 -1 -1 -1 -1 -1 -1 -1 -1 -1 -1 -1 -1 -1 -1 -1 -1 -1 -1 -1 -1 -1 -1 -1 -1 -1 -1 -1 -1 -1 -1 -1 -1 -1 -1 -1 -1 -1 -1 -1 -1 -1 -1 -1 -1 -1 -1 -1 -1 -1 -1 -1 -1 -1 -1 -1 -1 -1 -1 -1 -1 -1 -1 -1 -1 -1 -1 -1 -1 -1 -1 -1 185 185 185 185 185 185 185 185 186 186 186 186 186 186 186 186 -1 -1 -1 -1 -1 -1 -1 -1 -1 -1 -1 -1 -1 -1 -1 -1 -1 -1 -1 -1 -1 -1 -1 -1 -1 -1 -1 -1 -1 -1 -1 -1 187 187 187 187 187 187 187 187 -1 -1 -1 -1 -1 -1 -1 -1 188 188 188 188 188 188 188 188 -1 -1 -1 -1 -1 -1 -1 -1 -1 -1 -1 -1 -1 -1 -1 -1 -1 -1 -1 -1 -1 -1 -1 -1 -1 -1 -1 -1 -1 -1 -1 -1 -1 -1 -1 -1 -1 -1 -1 -1 -1 -1 -1 -1 -1 -1 -1 -1 -1 -1 -1 -1 -1 -1 -1 -1 189 189 189 189 189 189 189 189 190 190 190 190 190 190 190 190 191 191 191 191 191 191 191 191 -1 -1 -1 -1 -1 -1 -1 -1 -1 -1 -1 -1 -1 -1 -1 -1 192 192 192 192 192 192 192 192 193 193 193 193 193 193 193 193 194 194 194 194 194 194 194 194 195 195 195 195 195 195 195 195 -1 -1 -1 -1 -1 -1 -1 -1 -1 -1 -1 -1 -1 -1 -1 -1 196 196 196 196 196 196 196 196 197 197 197 197 197 197 197 197 -1 -1 -1 -1 -1 -1 -1 -1 198 198 198 198 198 198 198 198 -1 -1 -1 -1 -1 -1 -1 -1 -1 -1 -1 -1 -1 -1 -1 -1 -1 -1 -1 -1 -1 -1 -1 -1 -1 -1 -1 -1 -1 -1 -1 -1 -1 -1 -1 -1 -1 -1 -1 -1 -1 -1 -1 -1 -1 -1 -1 -1 -1 -1 -1 -1 -1 -1 -1 -1 -1 -1 -1 -1 -1 -1 -1 -1 199 199 199 199 199 199 199 199 -1 -1 -1 -1 -1 -1 -1 -1 -1 -1 -1 -1 -1 -1 -1 -1 -1 -1 -1 -1 -1 -1 -1 -1 200 200 200 200 200 200 200 200 201 201 201 201 201 201 201 201 -1 -1 -1 -1 -1 -1 -1 -1 -1 -1 -1 -1 -1 -1 -1 -1 -1 -1 -1 -1 -1 -1 -1 -1 -1 -1 -1 -1 -1 -1 -1 -1 -1 -1 -1 -1 -1 -1 -1 -1 202 202 202 202 202 202 202 202 203 203 203 203 203 203 203 203 -1 -1 -1 -1 -1 -1 -1 -1 -1 -1 -1 -1 -1 -1 -1 -1 -1 -1 -1 -1 -1 -1 -1 -1 -1 -1 -1 -1 -1 -1 -1 -1 204 204 204 204 204 204 204 204 -1 -1 -1 -1 -1 -1 -1 -1 205 205 205 205 205 205 205 205 -1 -1 -1 -1 -1 -1 -1 -1 -1 -1 -1 -1 -1 -1 -1 -1 -1 -1 -1 -1 -1 -1 -1 -1 -1 -1 -1 -1 -1 -1 -1 -1 -1 -1 -1 -1 -1 -1 -1 -1 206 206 206 206 206 206 206 206 -1 -1 -1 -1 -1 -1 -1 -1 207 207 207 207 207 207 207 207 -1 -1 -1 -1 -1 -1 -1 -1 208 208 208 208 208 208 208 208 -1 -1 -1 -1 -1 -1 -1 -1 -1 -1 -1 -1 -1 -1 -1 -1 -1 -1 -1 -1 -1 -1 -1 -1 -1 -1 -1 -1 -1 -1 -1 -1 -1 -1 -1 -1 -1 -1 -1 -1 -1 -1 -1 -1 -1 -1 -1 -1 209 209 209 209 209 209 209 209 -1 -1 -1 -1 -1 -1 -1 -1 210 210 210 210 210 210 210 210 211 211 211 211 211 211 211 211 -1 -1 -1 -1 -1 -1 -1 -1 -1 -1 -1 -1 -1 -1 -1 -1 -1 -1 -1 -1 -1 -1 -1 -1 212 212 212 212 212 212 212 212 -1 -1 -1 -1 -1 -1 -1 -1 213 213 213 213 213 213 213 213 -1 -1 -1 -1 -1 -1 -1 -1 214 214 214 214 214 214 214 214 -1 -1 -1 -1 -1 -1 -1 -1 215 215 215 215 215 215 215 215 -1 -1 -1 -1 -1 -1 -1 -1 216 216 216 216 216 216 216 216 -1 -1 -1 -1 -1 -1 -1 -1 -1 -1 -1 -1 -1 -1 -1 -1 217 217 217 217 217 217 217 217 -1 -1 -1 -1 -1 -1 -1 -1 218 218 218 218 218 218 218 218 -1 -1 -1 -1 -1 -1 -1 -1 219 219 219 219 219 219 219 219 -1 -1 -1 -1 -1 -1 -1 -1 -1 -1 -1 -1 -1 -1 -1 -1 220 220 220 220 220 220 220 220 -1 -1 -1 -1 -1 -1 -1 -1 221 221 221 221 221 221 221 221 -1 -1 -1 -1 -1 -1 -1 -1 -1 -1 -1 -1 -1 -1 -1 -1 -1 -1 -1 -1 -1 -1 -1 -1 222 222 222 222 222 222 222 222 -1 -1 -1 -1 -1 -1 -1 -1 -1 -1 -1 -1 -1 -1 -1 -1 -1 -1 -1 -1 -1 -1 -1 -1 -1 -1 -1 -1 -1 -1 -1 -1 -1 -1 -1 -1 -1 -1 -1 -1 -1 -1 -1 -1 -1 -1 -1 -1 -1 -1 -1 -1 -1 -1 -1 -1 -1 -1 -1 -1 -1 -1 -1 -1 -1 -1 -1 -1 -1 -1 -1 -1 -1 -1 -1 -1 -1 -1 -1 -1 -1 -1 -1 -1 -1 -1 -1 -1 223 223 223 223 223 223 223 223 224 224 224 224 224 224 224 224 -1 -1 -1 -1 -1 -1 -1 -1 -1 -1 -1 -1 -1 -1 -1 -1 225 225 225 225 225 225 225 225 226 226 226 226 226 226 226 226 227 227 227 227 227 227 227 227 -1 -1 -1 -1 -1 -1 -1 -1 228 228 228 228 228 228 228 228 -1 -1 -1 -1 -1 -1 -1 -1 229 229 229 229 229 229 229 229 230 230 230 230 230 230 230 230 231 231 231 231 231 231 231 231 -1 -1 -1 -1 -1 -1 -1 -1 232 232 232 232 232 232 232 232 233 233 233 233 233 233 233 233 234 234 234 234 234 234 234 234 -1 -1 -1 -1 -1 -1 -1 -1 235 235 235 235 235 235 235 235 236 236 236 236 236 236 236 236 -1 -1 -1 -1 -1 -1 -1 -1 -1 -1 -1 -1 -1 -1 -1 -1 237 237 237 237 237 237 237 237 -1 -1 -1 -1 -1 -1 -1 -1 -1 -1 -1 -1 -1 -1 -1 -1 -1 -1 -1 -1 -1 -1 -1 -1 -1 -1 -1 -1 -1 -1 -1 -1 238 238 238 238 238 238 238 238 -1 -1 -1 -1 -1 -1 -1 -1 239 239 239 239 239 239 239 239 240 240 240 240 240 240 240 240 241 241 241 241 241 241 241 241 -1 -1 -1 -1 -1 -1 -1 -1 -1 -1 -1 -1 -1 -1 -1 -1 -1 -1 -1 -1 -1 -1 -1 -1 242 242 242 242 242 242 242 242 -1 -1 -1 -1 -1 -1 -1 -1 -1 -1 -1 -1 -1 -1 -1 -1 243 243 243 243 243 243 243 243 -1 -1 -1 -1 -1 -1 -1 -1 -1 -1 -1 -1 -1 -1 -1 -1 -1 -1 -1 -1 -1 -1 -1 -1 244 244 244 244 244 244 244 244 -1 -1 -1 -1 -1 -1 -1 -1 245 245 245 245 245 245 245 245 -1 -1 -1 -1 -1 -1 -1 -1 246 246 246 246 246 246 246 246 -1 -1 -1 -1 -1 -1 -1 -1 -1 -1 -1 -1 -1 -1 -1 -1 -1 -1 -1 -1 -1 -1 -1 -1 -1 -1 -1 -1 -1 -1 -1 -1 -1 -1 -1 -1 -1 -1 -1 -1 -1 -1 -1 -1 -1 -1 -1 -1 -1 -1 -1 -1 -1 -1 -1 -1 247 247 247 247 247 247 247 247 248 248 248 248 248 248 248 248 -1 -1 -1 -1 -1 -1 -1 -1 -1 -1 -1 -1 -1 -1 -1 -1 -1 -1 -1 -1 -1 -1 -1 -1 -1 -1 -1 -1 -1 -1 -1 -1 -1 -1 -1 -1 -1 -1 -1 -1 249 249 249 249 249 249 249 249 -1 -1 -1 -1 -1 -1 -1 -1 -1 -1 -1 -1 -1 -1 -1 -1 250 250 250 250 250 250 250 250 -1 -1 -1 -1 -1 -1 -1 -1 251 251 251 251 251 251 251 251 -1 -1 -1 -1 -1 -1 -1 -1 -1 -1 -1 -1 -1 -1 -1 -1 -1 -1 -1 -1 -1 -1 -1 -1 -1 -1 -1 -1 -1 -1 -1 -1 -1 -1 -1 -1 -1 -1 -1 -1 -1 -1 -1 -1 -1 -1 -1 -1 -1 -1 -1 -1 -1 -1 -1 -1 -1 -1 -1 -1 -1 -1 -1 -1 -1 -1 -1 -1 -1 -1 -1 -1 -1 -1 -1 -1 -1 -1 -1 -1 -1 -1 -1 -1 -1 -1 -1 -1 -1 -1 -1 -1 -1 -1 -1 -1 -1 -1 -1 -1 -1 -1 -1 -1 252 252 252 252 252 252 252 252 -1 -1 -1 -1 -1 -1 -1 -1 253 253 253 253 253 253 253 253 -1 -1 -1 -1 -1 -1 -1 -1 -1 -1 -1 -1 -1 -1 -1 -1 -1 -1 -1 -1 -1 -1 -1 -1 -1 -1 -1 -1 -1 -1 -1 -1 -1 -1 -1 -1 -1 -1 -1 -1 -1 -1 -1 -1 -1 -1 -1 -1 -1 -1 -1 -1 -1 -1 -1 -1 -1 -1 -1 -1 -1 -1 -1 -1 254 254 254 254 254 254 254 254 255 255 255 255 255 255 255 255 256 256 256 256 256 256 256 256 -1 -1 -1 -1 -1 -1 -1 -1 -1 -1 -1 -1 -1 -1 -1 -1 257 257 257 257 257 257 257 257 -1 -1 -1 -1 -1 -1 -1 -1 -1 -1 -1 -1 -1 -1 -1 -1 -1 -1 -1 -1 -1 -1 -1 -1 -1 -1 -1 -1 -1 -1 -1 -1 258 258 258 258 258 258 258 258 -1 -1 -1 -1 -1 -1 -1 -1 -1 -1 -1 -1 -1 -1 -1 -1 -1 -1 -1 -1 -1 -1 -1 -1 -1 -1 -1 -1 -1 -1 -1 -1 -1 -1 -1 -1 -1 -1 -1 -1 -1 -1 -1 -1 -1 -1 -1 -1 259 259 259 259 259 259 259 259 260 260 260 260 260 260 260 260 261 261 261 261 261 261 261 261 -1 -1 -1 -1 -1 -1 -1 -1 -1 -1 -1 -1 -1 -1 -1 -1 -1 -1 -1 -1 -1 -1 -1 -1 262 262 262 262 262 262 262 262 -1 -1 -1 -1 -1 -1 -1 -1 -1 -1 -1 -1 -1 -1 -1 -1 263 263 263 263 263 263 263 263 -1 -1 -1 -1 -1 -1 -1 -1 -1 -1 -1 -1