# vtk DataFile Version 3.0
d-2__ created by libgimli-v1.5.0-1-g5991b6ac
ASCII
DATASET UNSTRUCTURED_GRID
POINTS 803 double
8.3333333333333	0	0
8.5	-0.29429712828708	0
8.6666666666667	0	0
21.166666666667	-0.35154628884587	0
21.333333333333	0	0
21	0	0
-0.13949540192174	-0.65832226163824	0
0.26765699968102	-1.1941152153012	0
0.50098922076846	-0.451860121227	0
11.833333333333	-0.28867513459481	0
11.666666666667	-0.84084908820295	0
12	-0.57735026571174	0
-1	0	0
-0.82347194173878	-1.6006755924119	0
21.666666666667	0	0
21.5	-0.55217395360815	0
1.1666666666667	-0.35154628884586	0
1.3333333333333	0	0
1	0	0
1.5	-0.55217395360814	0
23.61842901153	-0.60378553647188	0
24.166666666667	-0.55217395360814	0
23.833333333333	-0.35154628884586	0
1.6666666666667	0	0
8.1666666666667	-0.35154628884586	0
1.8333333333333	-0.35154628884586	0
2	0	0
4.8333333333333	-0.35154628884586	0
5.1666666666667	-0.55217395360814	0
5	0	0
2.6666666666667	0	0
2.3333333333333	0	0
2.5	-0.35154628884586	0
2.1666666666667	-0.29429712828708	0
8.4079889429861	-0.75760412093209	0
9.0144333430414	-1.1439190584088	0
8.8333333333333	-0.55217395360814	0
13	0	0
13.166666666667	-0.29429712828707	0
13.333333333333	0	0
3.1666666666667	-0.35154628884586	0
3.5	-0.55217395360814	0
3.3333333333333	0	0
16	0	0
16.166666666667	-0.29429712828708	0
16.333333333333	0	0
3.6666666666667	0	0
3.8333333333333	-0.29429712828707	0
4	0	0
4.3333333333333	0	0
4.1666666666667	-0.35154628884586	0
27	0	0
26.833333333333	-0.35154628884586	0
27.166666666667	-0.55217395360814	0
3	0	0
16.5	-0.35154628884586	0
16.666666666667	0	0
2.8333333333333	-0.55217395360814	0
13.5	-0.35154628884586	0
13.666666666667	0	0
4.5	-0.55217395360814	0
4.6666666666667	0	0
3.9253443903472	-0.75760412093208	0
29.833333333333	-0.29429712828707	0
30.166666666667	-0.35154628884587	0
30	0	0
35.905165514021	-0.87509566217462	0
36.166666666667	-0.35154628884586	0
35.661339523067	-0.61041034021497	0
5.5	-0.29429712828708	0
5.8333333333333	-0.35154628884586	0
5.6666666666667	0	0
5.3333333333333	0	0
27.333333333333	0	0
27.5	-0.35154628884586	0
35.833333333333	-0.29429712828708	0
6.1666666666667	-0.55217395360814	0
6.3333333333333	0	0
6	0	0
37	0	0
37.166666666667	-0.35154628884586	0
37.333333333333	0	0
10.741322276319	-0.75760412093209	0
11.175685896383	-1.113902458684	0
11.166666666667	-0.55217395360814	0
6.5	-0.35154628884586	0
30.795730030397	-1.0103532830333	0
31.229185900173	-0.87228466782526	0
31.000045632922	-0.57199295442671	0
31.666666666667	0	0
31.833333333333	-0.55217395360814	0
32	0	0
40	0	0
40.166666666667	-0.35154628884586	0
40.333333333333	0	0
6.8333333333333	-0.29429712828708	0
7.1666666666667	-0.28872883340808	0
7	0	0
7.2211097499487	-1.0538354750778	0
7.0053271435993	-0.61041034021496	0
6.7615011526461	-0.87509566217461	0
9.5	-0.29429712828707	0
9.3333333333333	0	0
9.1666666666667	-0.28872883340808	0
7.3333333333333	0	0
39.666666666667	0	0
39.833333333333	-0.29429712828708	0
13.674580112811	-1.7184248716052	0
14.353791495618	-2.0265268011931	0
13.958469529133	-1.3940906823913	0
7.6666666666667	0	0
7.8333333333333	-0.55217395360814	0
8	0	0
12.994672856401	-0.61041034021496	0
5.5920110570139	-0.75760412093209	0
5.8348685364776	-1.5356869134354	0
9.8333333333333	-0.35154628884586	0
9.5718321806872	-0.87509566217461	0
10.166666666667	-0.55217395360814	0
7.33337923226	-0.57364431858631	0
10.36828810089	-1.6552861219901	0
6.6666666666667	0	0
36.666666666667	0	0
36.833333333333	-0.29429712828708	0
37.5	-0.55217395360814	0
24.333333333333	0	0
24	0	0
12.503171480364	-0.86507900392268	0
12.328351644367	-1.416191408927	0
12.778890250051	-1.0538354750778	0
11.5	-0.28867513459481	0
19.666666666667	0	0
19.833333333333	-0.35154628884586	0
20	0	0
9.6666666666667	0	0
20.5	-0.28872883340808	0
20.666666666667	0	0
20.333333333333	0	0
20.905165514021	-0.87509566217461	0
10.5	-0.35154628884586	0
10.333333333333	0	0
9.3280061897341	-0.61041034021496	0
10.833333333333	-0.29429712828707	0
10.666666666667	0	0
22.833333333333	-0.55217395360814	0
22.5	-0.72876886968591	0
22.915493514149	-1.1101467813362	0
5.2020787936337	-1.0219070688786	0
18.833333333333	-0.29429712828707	0
18.925344390347	-0.75760412093207	0
19.166666666667	-0.35154628884587	0
22.666666666667	0	0
22.5	-0.35154628884586	0
13.833333333333	-0.55217395360814	0
14	0	0
16.833333333333	-0.55217395360814	0
0	0	0
14.166666666667	-0.35154628884586	0
14.333333333333	0	0
14.5	-0.55217395360814	0
14.833333333333	-0.35154628884586	0
14.666666666667	0	0
15	0	0
15.166666666667	-0.55217395360814	0
15.333333333333	0	0
2.0948344859795	-0.87509566217461	0
2.2850956781966	-0.60378553647187	0
12	0	0
11.666666666667	0	0
22.166666666667	-0.95506458788032	0
22.166666666667	-0.55217395360814	0
21.833333333333	-0.7287688696859	0
15.5	-0.35154628884586	0
15.666666666667	0	0
17	0	0
20.833333333333	-0.29429712828707	0
20.661339523067	-0.61041034021495	0
9	0	0
14.166666666667	-0.72876886968591	0
17.333333333333	0	0
17.166666666667	-0.35154628884586	0
18	0	0
17.666666666667	0	0
17.833333333333	-0.55217395360814	0
17.5	-0.29429712828708	0
16.258677723681	-0.75760412093209	0
12.833333333333	-0.28872883340808	0
18.166666666667	-0.35154628884586	0
18.333333333333	0	0
17.407988942986	-0.7576041209321	0
19	0	0
19.333333333333	0	0
18.666666666667	0	0
12.166666666667	-0.28867513459481	0
12.333333333333	0	0
15.833333333333	-0.55217395360814	0
20.166666666667	-0.55217395360814	0
19.5	-0.55217395360815	0
7.5	-0.28867513958836	0
23.5	-0.29429712828708	0
21.833333333333	-0.35154628884586	0
22	0	0
26.592011057014	-0.7576041209321	0
22.333333333333	0	0
23.934922518609	-1.0280995368212	0
25.166666666667	-0.35154628884587	0
25.5	-0.55217395360815	0
25.333333333333	0	0
23.166666666667	-0.35154628884586	0
23	0	0
26.666666666667	0	0
26.5	-0.29429712828708	0
23.666666666667	0	0
23.333333333333	0	0
26.166666666667	-0.55217395360814	0
26.333333333333	0	0
26	0	0
24.761501152646	-0.87509566217461	0
24.951762344863	-0.60378553647187	0
24.5	-0.35154628884586	0
33.5	-0.35154628884586	0
33.238498847354	-0.8750956621746	0
33.833333333333	-0.55217395360815	0
24.666666666667	0	0
28.166666666667	-0.35154628884587	0
28.5	-0.55217395360815	0
28.333333333333	0	0
25	0	0
24.833333333333	-0.29429712828707	0
27.761501152646	-0.87509566217461	0
27.951762344863	-0.60378553647187	0
29.333333333333	0	0
29	0	0
29.166666666667	-0.55217395360814	0
25.833333333333	-0.35154628884586	0
29.947484315848	-0.62869436758688	0
30.409983486194	-0.76921735210505	0
34.166666666667	-0.72876886968591	0
34.166666666667	-0.35154628884586	0
25.666666666667	0	0
35.445556916718	-1.0538354750779	0
35.333287434407	-0.57364431858632	0
29.666666666667	0	0
29.5	-0.28872883340808	0
26.834868536478	-1.5356869134355	0
30.833333333333	-0.28872883340808	0
30.671365010853	-0.57276869068256	0
27.666666666667	0	0
38.204670056311	-1.4270134762662	0
38.601589185276	-1.0280995368212	0
38.094834485979	-0.87509566217463	0
28	0	0
27.833333333333	-0.29429712828707	0
36.662074300781	-0.56642454030296	0
28.666666666667	0	0
31.746636025369	-1.1187108767801	0
28.833333333333	-0.35154628884586	0
33	0	0
33.166666666667	-0.29429712828707	0
33.333333333333	0	0
34.5	-0.55217395360814	0
34.731644951192	-0.92970615345739	0
35.666666666667	0	0
35.5	-0.28872883340809	0
30.333333333333	0	0
31	0	0
31.166666666667	-0.28867513958836	0
31.333333333333	0	0
38.285095678197	-0.60378553647188	0
37.833333333333	-0.35154628884586	0
30.666666666667	0	0
30.5	-0.29429712828708	0
36.5	-0.28872883340808	0
33.666666666667	0	0
36.41952417611	-0.77749898599357	0
38.5	-0.35154628884586	0
38.833333333333	-0.55217395360815	0
38.666666666667	0	0
29.657657699283	-0.83081436360664	0
40.168201869811	-1.5356869134355	0
40.5	-0.55217395360814	0
39.925344390347	-0.75760412093211	0
32.994672856401	-0.61041034021495	0
31.5	-0.35154628884586	0
43	0	0
42.666666666667	0	0
42.833333333333	-0.29429712828707	0
43.404176293252	-0.42323554094762	0
35.88498281448	-1.5034830799843	0
41.166666666667	-0.29429712828708	0
41.074655609653	-0.75760412093211	0
41.5	-0.55217395360814	0
41	0	0
41.333333333333	0	0
34.333333333333	0	0
32.166666666667	-0.35154628884586	0
32.333333333333	0	0
39.5	-0.55217395360814	0
39.333333333333	0	0
36.500673817427	-1.6307728168531	0
40.833333333333	-0.35154628884586	0
34.666666666667	0	0
35.333333333333	0	0
35.166666666667	-0.28867513958836	0
35	0	0
36.333333333333	0	0
36	0	0
12.333333329009	-0.57732068917697	0
37.666666666667	0	0
7.9035368819631	-1.2622568520387	0
28.737635378193	-1.2311528923644	0
29.212976838479	-1.0424777721347	0
28.833333333333	-0.7287688696859	0
12.66662076774	-0.57364431858631	0
38.166666666667	-0.29429712828707	0
38.333333333333	0	0
12.5	-0.28867513958836	0
39	0	0
39.166666666667	-0.35154628884586	0
20.347766676375	-1.1439190584087	0
19.833333333333	-0.7287688696859	0
40.666666666667	0	0
42.5	-0.35154628884586	0
10	0	0
18.5	-0.55217395360815	0
41.666666666667	0	0
23.428167819313	-0.87509566217462	0
42	0	0
42.166666666667	-0.29429712828707	0
42.333333333333	0	0
42.744785246826	-0.77776727251482	0
41.833333333333	-0.35154628884586	0
38	0	0
41.542494325991	-1.1832128457714	0
2.6015891852757	-1.0280995368212	0
13.258353909981	-1.6064355191183	0
4.8333333333333	-0.72876886968591	0
15.5	-0.7287688696859	0
15.8687454603	-1.0219070688786	0
16.501535203144	-1.5356869134354	0
14.833333333333	-0.72876886968591	0
12.666666666667	0	0
17.797921206366	-1.0219070688786	0
18.166666666667	-0.7287688696859	0
36.905165514021	-0.87509566217463	0
32.666666666667	0	0
32.5	-0.55217395360814	0
34.833333333333	-0.28867513459481	0
34.999999995676	-0.57732068917696	0
34	0	0
35.169838147031	-0.8650790039227	0
42.285095678197	-0.60378553647188	0
41.877780449001	-0.80261564071807	0
13.238498847354	-0.87509566217461	0
11.333333333333	0	0
11.697267761921	-1.4738194081615	0
12.166692603518	-0.86967323340335	0
3.1666666666667	-0.72876886968591	0
11	0	0
18.535412126967	-1.0219070688787	0
25.833333333333	-0.7287688696859	0
25.268255851942	-1.0280995368211	0
28.268255851942	-1.0280995368211	0
[...]
CELL_DATA 1424
SCALARS Coverage double 1
LOOKUP_TABLE default
2.8638379206632 3.1046537330047 2.0239589447907 2.6045955088489 1.8208454178141 2.9737973413684 2.793661434483 2.3092340281601 2.7517773888164 2.5865995553173 2.8185174606269 2.4180457722506 2.8272968304006 2.6401967664634 2.6692971589485 2.5930478941859 2.4782723568659 3.2056237557055 2.6162489962031 3.1974178146216 3.2501667404195 3.2187537810561 2.9307890961328 2.9456796052607 2.949066060121 2.9288619567611 2.9457421085713 2.8455397365414 2.5184630312842 2.9261375422274 2.9696691481412 2.6463996404978 2.7580269014669 2.9433712381083 2.8965920645867 2.7372079864647 2.9593707782605 3.2905675663222 2.4962130307301 2.7250730083052 2.642498403384 3.0105595383869 3.1420696135744 3.2261632688001 2.8106640372192 2.4433653808407 2.8531502156454 3.2462904021275 3.2373300738048 2.1274884276694 2.9627189762921 3.0484975167426 2.6999395767286 2.3534981303361 2.7965282981257 2.6214288931875 2.49066346643 2.4179568927433 2.8660580813115 2.9282281080948 3.3059851099618 2.8615567704356 3.1150220525597 2.3578757754955 2.6257822006899 3.0845442921017 2.9749826053299 2.9113947818499 2.6662130610157 2.7850896982421 2.9218959893287 2.7126539302196 2.8186154782607 2.5993564465076 2.4028910531581 2.7282765730525 2.8414480656923 2.7565314122805 2.437217791629 3.0215617535826 2.7820857232409 2.5591226723136 2.7184875771637 3.0723989140795 2.5860757943385 2.7813435879715 3.0142713135486 2.8496492288411 2.8496750928925 2.3191796053895 2.7883777392185 2.4208613345753 3.0487058640416 2.6270817213678 2.5074117077999 2.9366151696162 2.3479575489026 3.0380223989981 2.7422282301173 3.0102596312309 2.6509755378127 3.073625810362 2.6589325525698 3.0058306709039 2.8438365571069 2.7006079363925 2.8131451428306 2.7446068580707 2.8216939110399 3.0312055124691 2.6564211237576 3.2121529904616 3.2540067152062 3.052675533348 2.6571156690176 2.8632109452663 3.1277571578672 2.7974340359154 3.1451486091026 2.8712515152201 2.7579056082315 2.8842291079054 2.9363458207463 2.7941196149075 2.7290382562059 3.0594323778752 2.7461673552536 2.7850852475659 2.8930213001254 2.8186392017315 3.2979986361154 2.745683827828 3.034441477082 3.2427993583605 2.6428739582889 2.9179329546698 2.8726650187058 2.9558239885856 3.1866708680047 2.913203171051 3.1633145788144 3.098224863795 2.7199946769512 2.7170761345849 3.0697096415605 2.9411562934138 3.3741059517048 2.9730511244545 2.7426849005434 3.1917012294561 2.8553821602937 2.7481394115024 3.0062199985139 3.2074169698248 2.7774510287091 3.1795096825047 2.588133341628 3.0444786883897 2.9802688105365 2.845970901613 2.5753206713792 2.8078871982013 3.0933163976743 2.3099218514028 3.3739553885953 2.9817839434073 2.7437646235897 3.0676315816756 2.6145039103548 2.87260601746 3.2150352838215 3.161749639033 2.9031331276472 3.1894012027811 2.6525844314809 2.9089123314504 2.6593308412188 3.1768398934682 3.2065891057066 3.3687955850776 2.6001333005524 3.083488469925 2.9535294082062 3.0857733802052 2.9650367808511 2.8705861852782 2.7120691291541 2.7560164208161 2.7494909631765 2.3969323514802 2.7796575380511 2.7494021799412 2.8883565949196 2.9135544439849 3.0783871488173 2.2447954535379 2.4253965945105 2.7967015511761 2.4754957324513 2.973795686663 2.9307897016962 2.8164123987521 3.1755806064867 2.8900434404275 2.3045610151366 2.5117328754179 2.6248905175065 3.0472189159211 2.718679699698 2.9583779603355 3.1930891975062 2.9402152487145 2.6587558795168 3.1126244555108 2.6619245705997 2.9549563906468 2.790954319422 2.6909061248552 2.7356594452305 2.4391516578697 2.8604167411061 2.5627600781713 2.5500997688003 2.6565348701082 2.4851325165867 2.8260959498557 2.8409624638334 3.0592962850641 2.8719937428112 2.7397447327289 3.0489480666462 3.0983952259046 2.5557631528231 2.8566492667088 2.5290128650447 2.8887824652397 2.7098857120062 3.2105522363241 2.9249923866853 2.9515087406701 2.8575517181843 2.6757641171444 2.7022438985377 2.8675746393068 2.6900233415268 2.9659832550082 2.8666086330476 2.1930295252278 2.7249519432269 2.7444696955635 2.9665737531726 2.5845854711055 2.7233211863133 2.6381654856644 2.7863826694421 3.0725161663102 2.6625996503305 2.8676140141324 2.3081956145424 2.458058189571 3.1469371637144 2.3156008950925 2.6217608882322 2.7775666898153 2.5673085349481 2.803002449734 2.5377541164889 2.6091852318625 2.7180409769893 2.2611597794066 2.552320746503 2.649466912774 2.5354976008218 2.5534956376339 2.4706861055247 2.6526876305677 2.7643184458981 2.8033809564414 2.6425287973493 2.6457332257695 2.7911329141389 3.2042037136764 2.8819795789556 2.541171797412 2.6694302453961 2.6540884804505 2.7739791868635 2.7116409428375 2.7935974878675 2.828643709924 2.6772724282043 2.7899778232867 2.8161186008474 3.3896576308864 2.8540420015787 2.9158252282675 2.76650709964 2.8101455949155 2.8424783620244 3.3834969645859 2.8674630328222 3.0223726424573 2.7716230339662 2.5725547268171 2.9609161274807 2.7715120528352 2.8256251868301 3.3694084950141 2.9411062951864 2.9466431629885 2.9344325264976 3.3353960763897 2.6795206981786 2.7977720301197 2.6060331668644 2.3930185498406 2.902450261714 2.6113913082986 2.666442442992 3.0860260927828 2.7089831327889 3.0175044080517 2.8198272094445 2.9840529313044 2.3329024128031 2.4011925009759 2.5780846541392 2.5510294556312 2.6398806371236 2.739252654402 2.5727393729713 2.4978475996572 2.6189984508568 2.8266326724926 2.7892644376785 2.9009457173274 2.37301867101 2.2501069137813 2.8707618423989 3.2465408688082 2.9619248474455 2.8163782554946 2.6619630394942 2.6841243603855 2.6274847731153 2.7808252126913 2.683443750493 2.8626056956478 2.7011298890277 2.6877619987442 2.9253962292741 2.5301712251198 2.2807739308743 2.5751200683702 2.5021463666702 2.3429711175001 2.7060582358681 2.7001637192124 2.4078026435659 2.9388257952926 2.6289770411701 2.4900189778768 2.5484042130239 2.6670914919606 2.572342456491 2.6467469916155 2.4011263961315 2.8756876314723 2.7704241299683 3.002949624424 2.7137565381542 2.6604584855596 2.6955279203701 2.9054079402375 2.7879194773086 3.0207714018406 2.7467331512034 2.9339803681895 2.897692863355 2.6750814211801 2.753179781076 3.0245116051859 3.2066286376444 3.1450685527231 2.6086877151794 2.7695410536781 2.8141544327736 2.8856664391862 2.5599353446846 2.7513423221382 2.9023624455906 2.6983937749526 2.6076649425064 2.8123374181629 2.6253110887628 3.3868728177974 2.4895098981291 2.5222198248103 2.3698374585821 2.5974796899597 2.2763170688752 2.4636371571986 2.3100922410026 2.3680355502394 2.566865455299 2.3487064509835 2.3233073189764 2.8726349427766 2.4677357928878 2.5474583970267 2.6099919656431 2.6983161461723 2.570437604493 2.6663080882134 2.5251989264159 2.7299216518804 2.6780600517078 2.2698704155186 2.5142717637612 2.5418299167256 2.3788510585599 1.9902246343422 2.5318109082265 2.5985480379809 2.7792721364291 2.6466874447424 2.7894204228404 2.6595954593167 2.2205131876278 2.7683298381363 2.6068038005957 2.7411414179597 2.5584376802611 2.8631693598046 2.5753734307435 2.8908385512942 2.5816617017562 2.2633759176921 2.2614141530772 2.7080610194431 2.7064262794405 2.7998048559839 2.5800822826902 2.4116947793853 2.2217912330702 2.8173714089271 2.625748697784 2.8407768089353 2.644226285496 2.6926799544125 2.451925550581 2.4516743345691 1.907371021257 2.5715329564603 2.425352100743 2.0497685995478 2.2108445404679 2.425460429596 2.4785095835984 2.503719302545 2.5468255460023 2.9054392555726 2.4475502766081 2.2306786076185 1.937664579838 2.1601313433447 2.633478757878 2.4037783503807 2.4291853573039 2.0706452211672 2.6865310431602 1.8129160665885 2.7384643969732 2.5270785043862 2.5544166862052 2.4987723385921 2.7635945465185 3.2569860379062 2.3780766092944 3.0635154228132 2.5485442737631 2.5559153169465 2.5577184651346 2.6381124397459 2.3882188221341 2.6080186270448 2.5488008397981 2.566647198268 2.2450979007653 2.649763376461 2.4685040276387 2.6692662674983 2.0839211188488 3.0704187408305 2.5501496735621 2.4857175221685 2.2965085766448 2.3937954081809 2.537032009724 2.6574701849027 3.0084154268926 1.7226024188554 2.6903272757957 2.6350448880733 2.347854983881 2.4560624879622 2.043881750894 2.1547967240882 2.5611532096176 2.2824615690812 1.8700513031936 2.4817810204959 2.3687593870998 2.8113666622574 2.1120058734735 2.3309002025219 2.3008757587895 2.3804009665442 2.0683112524845 2.0948404765637 2.5020120855811 2.6542945175021 2.4942368524382 2.4491970930657 2.3003830015724 2.3390523182251 2.0019102202742 2.4936566993625 2.2224552054508 2.2117583027037 2.5081696897545 2.4050550057557 2.5910251473463 2.3770622398466 2.1606645689432 2.5260057631538 1.839599124467 2.1805959114043 2.4212822508996 1.636598864149 2.2751919395942 2.2693456122833 2.5549569643765 2.3661968163102 1.7908444542456 2.5622169832022 2.5438725840499 2.6114905881081 2.6284351222014 2.4822305362739 2.395467373627 2.4697307278407 2.4478011276808 2.4595509754982 2.1077038461934 1.9961987234925 2.6436714171901 2.5261448545021 2.3330070322351 2.4162711863638 2.3435787568394 2.68823849256 2.4190001430582 2.2616336988726 2.2302201136529 2.2654864206574 2.39557689486 2.5589173798587 2.9534214953979 2.6253123327545 2.0174565019033 2.4819157051381 2.8347045080585 1.9775183837968 2.4138181546465 2.4176065609763 2.3066225277503 2.303974689579 2.6454874834171 3.0399752511517 2.3952562374117 2.3424425427586 2.3364230892733 2.3893019082143 2.7124299708434 2.4818114022428 2.1745912228117 2.1627283495448 1.6766870839592 2.1083471034393 2.1916718442843 1.7693273849595 2.7702181996455 2.6334378557375 2.3427344771529 2.2711387644704 2.7047206289716 2.6234069131819 1.9745925231306 1.3141957272718 2.2735846572546 2.3299784837308 2.1266041077355 2.819879453652 2.0499739312775 2.0145998078897 2.5484785375678 2.7365405719696 2.4331294081258 2.3181611298317 2.4117733530862 2.3386790914267 2.1647306989618 2.469528386846 2.1632417233009 2.3436822661907 2.4862155477009 3.1925261090631 2.1503059172701 1.9867082685362 1.9575336503445 2.18911569346 2.1002329326414 1.9451069326957 2.1905811141785 2.2357970226874 2.3102183855751 2.0521861418075 1.974374014717 2.5168605506592 2.4260810828855 2.5970879125536 2.3067796592282 1.8270713934402 2.4035434486565 1.6974208529915 1.5816384245901 1.8750264712961 2.3372696279469 2.6972498236695 1.9790873857758 2.7031275347785 2.1211148403738 2.1616533950403 1.9883300590975 2.2697246526954 1.9956688907499 2.5199027823666 1.8995656299351 2.2631815812072 2.0826215407284 1.6490978562732 2.0993805692764 2.1482245310013 2.2687708746275 2.2251810459054 2.2868150280664 2.0667750378851 2.3766225910495 2.7614909052642 2.0374483275551 2.306429783552 2.207150928892 2.1647988121677 2.3614643644651 2.1044135577134 2.1206756946479 2.6560447597362 2.4427213830948 2.1420765963811 2.85465931805 1.5677590679475 2.0169355510894 2.6829719195077 2.0921889371732 2.3132177810276 1.2876617051907 2.0499853982161 2.7641684599478 2.1704374438612 1.8368930857166 1.9238227389137 2.2937947072846 2.1218482473015 1.8707879032614 2.1362738383937 1.9443679275625 2.0814798013305 1.934773702639 2.3265738681567 2.0603612784302 1.8959943747378 2.1138846317394 2.0725025694962 2.1498550082399 2.020600457564 2.0418681430116 2.8967846795245 1.9878796458499 2.1346914918933 2.3259422602844 2.1597550172918 2.0023311344533 2.2292303010413 1.7359988079631 1.9366835883167 1.8181682889026 1.8872702375917 2.0583658413231 2.7187196433377 2.308010951468 1.9713070750459 1.7259832110478 2.389660259334 2.0516262001321 1.3638472093809 1.8123318661641 0.57168948502652 0.74954160517854 2.0016464468849 1.9493003144376 1.8373175724542 1.3774826595865 2.1202407813079 0.85466396455896 2.5246437915165 2.6695297021138 1.9473522466748 1.4274340215959 1.2154914676411 1.8273925940123 2.5234325583714 1.634303149984 1.8109391578577 1.825380578243 2.4401983332852 1.7934884288875 1.8555524691505 1.9904298224724 1.6641229732234 2.1332901458212 1.9142502363127 2.072619634924 2.0272265231776 2.0701141197073 1.8604841082857 1.6209180822372 1.9975943790941 2.2907870507754 1.5513102044571 2.4665323102595 2.6110943485531 2.4789286741148 1.8609689857915 2.305205549136 1.6374181804799 1.6365995227573 1.707077839666 1.6833204195759 1.9182386397214 2.1019456308587 2.1386432579845 2.8865042027522 1.7240176973193 1.6695460588412 1.5270945645059 1.5987873707684 2.3789790353262 1.9468078691171 1.7540584126111 1.9516543895157 1.7116215012915 1.3655353905213 1.3522491572101 1.9406571383066 1.5541927301974 1.4822419472114 1.5555007871212 1.815644948904 2.2323308075511 1.2458052688262 1.8692046330532 1.2056723850686 1.4771618389973 1.6092645425562 1.9736756813584 1.7341290902064 2.2212668541119 2.0329231109373 2.0131131159384 2.1072279104752 1.6736283676315 1.8561859002569 1.8600980030164 1.7278945572631 1.8304093847933 1.9321246238795 1.4982757642883 2.0089035930225 1.748086892797 1.6446301898139 1.7875725520547 1.8468392687519 1.8532774142633 1.1536766287977 1.9921127483426 1.6481196389555 1.7608224238009 1.5027751558101 1.7740760681122 1.4833870182022 1.4459660045274 1.6397963629201 1.6825774835003 1.4813244716823 1.6977459322565 1.5913057965035 1.3510992259576 1.4880572767786 1.5211051310743 1.1749413108586 1.6808704450592 1.275019981762 1.70389819394 1.5314751545187 1.5653670878558 1.2791990574799 1.3608104259861 0.92991859213367 1.2170685488175 1.4382767500299 1.2701596821856 1.1747487660283 1.4819498234901 1.381404097383 1.5583279637869 1.0863109161124 1.7208027881355 1.9034576586542 2.0497040443167 1.6663656990137 1.4380514841015 1.4951727081646 1.5938864099175 1.4271962039394 1.3239201762478 1.8914060337032 0.93993996323577 1.4838407161764 1.6474815675634 1.7645653095348 1.6644648872358 1.5570196692834 1.4384462336166 1.431018078835 1.2053477877533 1.0887062415187 1.2665678697399 1.452827684774 1.3244237638178 1.4771333221141 1.1128225892296 1.761879838469 1.3957533679908 1.6921018248006 1.765345227528 1.3320475763304 1.3076270872036 1.5812956104005 1.5881389970016 1.2744537236159 1.4116523805035 1.325637157325 1.4635889164873 1.3226020356277 0.78750320822551 1.2252592279569 1.5232082567912 1.2521860969678 1.0217963372327 1.4527710343448 1.3064076917725 1.2318131894256 1.1285657017262 1.4480598516253 1.0619916875516 1.1836220654057 1.2111516745021 1.2074026978737 1.0229936880038 1.1341808781816 0.68612974449912 0.88238208208523 1.0324847196695 0.89920889502619 1.2492538254646 1.3185368357363 1.2145247153598 0.96612219396884 0.73474450038693 1.045266688025 1.0887142456817 1.601434661663 1.2160354942151 1.0788436759043 0.96928265788653 1.1576800724738 0.99369920524182 1.2133070234595 0.43167333882725 1.0930987346656 1.488027364479 0.89527853039446 1.0806912078365 0.7037718528948 0.77824068897412 1.0097514626219 1.2343225424426 0.86721653757249 0.91458963378597 0.90980314996051 0.62959459545425 0.9000094163667 0.44871223942066 0.39407718686766 0.44606091898269 0.58337925122797 0.76385789264783 0.82676273677178 0.80584535824449 0.70057404711613 0.7512851630431 0.8399357149499 0.85366098212481 0.41499139246678 0.72379841157181 0.94672562146018 1.6550898640476 1.6522629193457 1.1473651007668 1.3320689240941 1.0632236389668 1.1836698534028 1.1454595123154 0.65968492594816 0.76741527214525 0.63470669678165 0.64042147960632 0.63488410827919 0.76189663042083 1.0420049747658 0.64414504488126 0.60208666066954 0.7251500062115 0.82917986967126 0.55011723148085 0.53319815751901 0.77885796048632 1.45504937006 0.74583404326988 1.4349226593105 1.1322075692527 1.4677453436865 1.5086666793819 1.378835764662 1.3386676917419 1.1389745707263 1.2532404290142 1.2537070144312 0.79827724913992 0.65007803440732 0.46891553615315 0.40712114680781 0.41271860152766 0.86954266764884 1.1616069112844 1.0664025107626 1.3436540809757 0.76083531181435 0.85286744709185 0.94860594559145 1.2857936227696 0.99227517375763 1.2364834594952 1.0861262602528 0.90364532311895 0.76196968863587 0.68674437380517 0.52577741789309 0.78164774802217 0.44502329696746 1.0265444353475 1.0355870414299 1.4383024265216 1.1405367562607 1.2469437465792 1.2271165784266 1.4897753786969 1.0338645783632 0.9629761212669 0.59421210627787 0.92622278073021 0.86083798406214 0.93048973229856 0.90430122215794 1.0856083567589 0.50358089730816 0.63712222975287 0.69263061630554 0.56901598842096 0.77451967702978 0.44257404284829 0.53188450091822 0.80209824718885 0.89275115399298 1.0332396050249 0.64561173921876 1.1461366590072 0.72506310589719 1.3295452512694 0.97409233610592 0.74284144568393 1.1303513743599 0.92106083951466 1.0856716793705 1.0137117224281 0.49598409684547 0.41034247288381 1.0613571343731 0.70028878431989 0.72267450807412 0.60871730606315 0.64896758299025 1.1075578436828 0.49118756668104 0.64227817594162 0.8259522120407 0.70198870830517 0.95792628601906 0.88405922081298 0.57299955754937 0.46251263650311 1.1033107340725 1.0277292267778 1.1782506136279 0.86460984956063 0.91955545327048 1.0183068601945 0.93754638763249 0.76060622776176 0.83451001589703 0.95514988180867 0.55641590032558 0.43569492075148 0.8098115586795 0.50260700915117 0.76169437059482 0.77089693389743 0.38699507739715 0.49823936658561 0.54673607892679 0.61133546476341 0.84596922556051 0.95253358586892 0.75810859563814 0.44770007625842 0.85932319176758 0.43398028516479 0.42849551426324 1.0377776286237 0.52091489096226 1.3503975815151 1.1726379976395 0.71722506622156 0.77059242421661 0.49466692828084 1.1344713750524 0.62001184912352 0.55896290866686 1.6775562110298 1.3185742940484 0.59796524398513 0.75071581706813 0.69022371922642 0.48791374698729 0.44826843677062 0.49222818005745 0.40334762415918 0.54211553097109 0.39986660598055 0.46348364914393 0.5210036934307 0.7149521101457 0.58430419683414 0.52183894285064 0.40208198788586 0.65242263433444 0.44328940279687 1.6456822274433 1.2971713550135 1.1343479233642 1.0164674262154 0.4612139115299 0.51728292374895 0.59705575507328 0.43396322246636 0.4148087179395 0.57127801960928 0.94191450250738 0.71823574280201 0.68174425573022 0.56132431673461 0.40765641799171 1.1423144309708 0.82037302567034 0.55384620285286 0.41825516937344 0.59983563476757 0.46209877154623 0.48962871199975 0.40657751098111 0.42601059009085 0.56780269831744 0.7200661229244 1.1182846676966 0.63510412251717 0.58340691996896 0.67812842396247 0.78439556986318 0.71164125153885 0.40345741047894 0.63964312579583 0.78625273903598 0.84947536857791 0.89125493393095 0.96131266346869 0.90388202184081 0.80153593985037 0.7373661467059 0.86064222957371 0.61677667362016 0.65354636696961 0.58862133316581 0.84302799394474 0.44362044510378 1.1009902271423 0.79556936526305 1.2633137254593 1.1136763177556 0.70878861470977 0.6688544716217 0.70663541528924 0.53805080052251 0.6288716237435 0.39941075079748 0.86748249833991 0.62844086836028 0.72679409826747 0.86259869547088 0.77280995370123 1.1125458045224 0.6511796024611 0.69015666923268 0.77538589388023 0.74920116719048 0.6333086686696 0.46305598161982 0.53016033994839 0.89493619214982 0.68492968607823 0.93181308181474 1.0213289529447 1.0167487566414 1.43026028731 0.40538227998895 0.55304947088884 0.89215065359019 1.0376072806808 1.5300904005151 1.3928537400779 0.8122279544961 0.69610742800678 1.7992315176683 1.6225292911642 1.3482067783827 1.5332769999729 1.2982334803992 0.73680507552804 1.584305851663 1.3251202751146 1.1884994927857 1.2879637637896 1.0987373251203 0.85285301531243 0.94079329360281 1.0899331232043 0.91430595889076 0.92876359456035 0.83862700743173 1.2171464596272 1.4935976390709 2.0348783532842 1.7152822997681 1.4435288055121 1.2170884409043 1.1191138537708 0.69457935746585 1.1999071988373 0.9881450027 1.2883098757328 1.0102754816374 0.98437073210822 0.82294900209113 1.1363585333973 0.7871352427619 0.72669530914891 1.0655770112625 1.9724963143715 1.8287876784899 1.9564784871812 1.560636879416 1.01911287282 1.2685703686834 1.4062072759853 1.3357277815715 1.2792186432639 1.2341493105116 1.24427486894 1.3843710931886 1.1388080982029 0.93469094170194 1.823487854922 1.6177131321387 0.65569602236145 0.36621005861671 0.53294620865894 0.43582036023528 1.230038113319 1.4748599500637 0.4987155589956