# vtk DataFile Version 3.0
d-2__ created by libgimli-v1.5.0-1-g5991b6ac
ASCII
DATASET UNSTRUCTURED_GRID
POINTS 257 double
19.5	-0.25	0
19.643267391024	-0.375	0
19.690940791558	-0.19094079155751	0
22.625	-0.27380702240065	0
22.625	-0.13804348840204	0
22.518663902413	-0.18940103023301	0
22.458333333333	-0.087886572211468	0
22.416666666667	0	0
22.375	-0.13804348840204	0
22.291666666667	-0.087886572211468	0
22.333333333333	0	0
22.25	0	0
20.083333333333	0	0
20.041666666667	-0.13804348840203	0
20.125	-0.087886572211466	0
20.166666666667	0	0
20	0	0
20.708333333333	-0.13804348840203	0
20.666666666667	0	0
20.625	-0.087886572211466	0
20.208333333333	-0.07357428207177	0
20.75	0	0
20.791666666667	-0.087886572211464	0
20.333333333333	0	0
20.25	0	0
20.291666666667	-0.087886572211468	0
21.166666666667	0	0
21.208333333333	-0.07357428207177	0
21.25	0	0
20.416666666667	0	0
20.375	-0.13804348840204	0
20.458333333333	-0.087886572211468	0
21.291666666667	-0.087886572211468	0
21.333333333333	0	0
21.625	-0.13804348840204	0
21.518663902413	-0.18940103023301	0
21.625	-0.27380702240065	0
20.583333333333	0	0
22.916666666667	0	0
22.833333333333	0	0
22.875	-0.13804348840204	0
20.833333333333	0	0
20.875	-0.07357428207177	0
23.98747163413	-0.5056358037932	0
24.050519698408	-0.25547676721966	0
23.843533331918	-0.29816134131379	0
23.458333333333	-0.087886572211464	0
23.404607252882	-0.15094638411797	0
23.541666666667	-0.13804348840203	0
20.5	0	0
21.791666666667	-0.087886572211468	0
21.833333333333	0	0
21.75	0	0
21.231336097587	-0.18940103023302	0
21.125	-0.13804348840204	0
19.705488373266	-0.59091608366499	0
20.007921013115	-0.8717186506847	0
19.91135296792	-0.47048281487414	0
24.166666666667	0	0
24.208333333333	-0.087886572211464	0
24.25	0	0
21	0	0
20.916666666667	0	0
20.958333333333	-0.13804348840203	0
24.791666666667	-0.087886572211468	0
24.833333333333	0	0
24.75	0	0
21.041666666667	-0.087886572211464	0
21.083333333333	0	0
24.083333333333	0	0
24.125	-0.07357428207177	0
22.541666666667	-0.073574282071767	0
21.375	-0.13804348840204	0
21.416666666667	0	0
21.5	0	0
21.458333333333	-0.087886572211468	0
22.583333333333	0	0
22.666666666667	0	0
22.226291378505	-0.21877391554365	0
22.432011579996	-0.40775209656411	0
24.148002764253	-0.18940103023303	0
24.208717134119	-0.38392172835888	0
24.291666666667	-0.13804348840203	0
22.208333333333	-0.07357428207177	0
22.166666666667	0	0
22.125	-0.072182208352023	0
21.875	-0.13804348840204	0
20.237940586216	-0.15094638411797	0
21.916666666667	0	0
21.708333333333	-0.07357428207177	0
22.083333333333	0	0
22	0	0
22.041666666667	-0.13804348840203	0
20.190375288162	-0.21877391554366	0
21.958333333333	-0.087886572211464	0
20.541666666667	-0.073574282071767	0
20.571273919549	-0.15094638411796	0
20.317063962986	-0.25702488420529	0
21.541666666667	-0.073574282071767	0
22.5	0	0
23.583333333333	0	0
23.625	-0.087886572211466	0
22.791666666667	-0.087886572211468	0
20.203594889612	-0.40391444725954	0
21.583333333333	0	0
21.666666666667	0	0
22.75	0	0
22.958333333333	-0.087886572211464	0
23	0	0
23.041666666667	-0.13804348840203	0
22.708333333333	-0.07357428207177	0
23.083333333333	0	0
23.125	-0.087886572211466	0
23.166666666667	0	0
23.208333333333	-0.13804348840203	0
23.25	0	0
22.165334880767	-0.15260258505374	0
23.291666666667	-0.087886572211464	0
21.731336097587	-0.18940103023302	0
23.5	0	0
23.416666666667	0	0
23.333333333333	0	0
23.375	-0.07357428207177	0
23.666666666667	0	0
22.086941669094	-0.2859797646022	0
21.958333333333	-0.18219221742147	0
23.125	-0.18219221742148	0
23.228873378537	-0.27753669533404	0
23.708333333333	-0.07357428207177	0
23.041666666667	-0.23876614697008	0
22.958333333333	-0.18219221742147	0
23.833333333333	0	0
23.875	-0.13804348840204	0
23.916666666667	0	0
23.791666666667	-0.087886572211468	0
23.75	0	0
23.958333333333	-0.087886572211464	0
24	0	0
23.483730629652	-0.25702488420531	0
24.333333333333	0	0
24.375	-0.087886572211466	0
23.369620976373	-0.40603607246707	0
23.604159114629	-0.34842263547806	0
25.124752694808	-0.11296503030675	0
25	0	0
24.958333333333	-0.087886572211468	0
24.041666666667	-0.13804348840203	0
24.416666666667	0	0
24.458333333333	-0.07357428207177	0
24.875	-0.13804348840204	0
24.583333333333	0	0
24.541666666667	-0.13804348840203	0
24.625	-0.087886572211466	0
24.5	0	0
24.43533056908	-0.18940103023302	0
24.916666666667	0	0
24.385963434616	-0.36114994877356	0
24.708333333333	-0.07357428207177	0
24.666666666667	0	0
23.636111778917	-0.20065391017952	0
24.999752694808	-0.25100851870879	0
22.731336097587	-0.18940103023302	0
20.851997235747	-0.18940103023303	0
24.737940586216	-0.15094638411797	0
20.523708621495	-0.21877391554365	0
21.133853031742	-0.25547676721968	0
20.949480301592	-0.25547676721966	0
21.041666666667	-0.52911283384145	0
21.041666666667	-0.18219221742147	0
23.357041954828	-0.21877391554366	0
23.737940586216	-0.15094638411797	0
24.690375288162	-0.21877391554366	0
23.958333333333	-0.18219221742147	0
19.875	-0.11303967622539	0
19.75	0	0
20.650397296319	-0.25702488420526	0
21.292050467453	-0.38392172835888	0
21.414390113348	-0.63321254312708	0
21.469144028345	-0.36097200963104	0
21.848127708251	-0.28948918465343	0
22.848127708251	-0.28948918465343	0
22.726596951268	-0.4234584073117	0
23.731548923005	-0.26700761442393	0
24.817063962986	-0.25702488420529	0
20.031958747178	-0.33325463579056	0
20.523689393121	-0.44776195923934	0
23.184065504659	-0.43422319923747	0
23.545209981036	-0.61464357222601	0
24.552290248164	-0.29580321144285	0
25.25	0	0
20.800529041383	-0.37028063139366	0
23.130694908432	-0.28024272799092	0
22.907115884997	-0.43487734236883	0
25.5	-0.5	0
25.5	-0.25	0
25.356886217184	-0.375	0
25.308843572405	-0.19115642759521	0
25.5	0	0
21.681768476189	-0.55823447719905	0
23.041897355025	-0.3545575021244	0
22.950100433703	-0.28398118611486	0
23.746371622197	-0.43057135368151	0
23.045779100149	-0.5143168838031	0
21.615347366628	-0.83560735755964	0
21.971649595913	-0.56775148091581	0
22.235269600634	-0.41546210057925	0
22.346412380513	-0.73751448832674	0
22.007726950717	-0.98664640296265	0
20.322202955504	-0.72835150504623	0
23.798122080496	-0.68908130839227	0
24.703430397599	-0.40445925111313	0
24.914859484231	-0.44990795630246	0
23.247599241801	-0.70334449364573	0
25.053928463665	-0.58159990549132	0
25.221377875989	-0.67457110982012	0
25.225195424337	-0.49586438948828	0
24.530720924191	-0.4852517756918	0
24.323984230706	-0.57992151527177	0
19.84485407481	-1.2957460393421	0
19.743909551686	-0.8528010586154	0
24.746070739038	-0.72060716412098	0
23.604860290622	-0.8788438191921	0
23.043947453281	-1.1807973577914	0
23.54268225478	-1.3246684327942	0
23.849430697053	-0.99522786547226	0
24.043693421774	-0.75311160759413	0
22.849047319116	-0.69970565535729	0
25.000856094841	-0.87446921301307	0
25.5	-1	0
19.845623228308	-0.30002188546398	0
24.512369350266	-0.71824350459	0
24	-1.6666666666667	0
24.051778272566	-1.3024535658708	0
19.5	0	0
21.680522574649	-1.2514855461386	0
21.375	-1.6666666666667	0
21.75	-1.6666666666667	0
25.174325422113	-0.32450830281231	0
19.5	-0.5	0
20.747329141204	-0.71351083399284	0
19.5	-0.75	0
20.348572023727	-1.2023161679924	0
21.179597305363	-1.0673000334922	0
23.25	-1.6666666666667	0
19.5	-1	0
24.75	-1.6666666666667	0
25.013091550828	-1.3141602648437	0
24.625304590967	-1.106556793762	0
24.375	-1.6666666666667	0
24.189043391347	-0.96114657873573	0
22.064690440023	-1.391571216678	0
22.426745644615	-1.201505510398	0
19.5	-1.6666666666667	0
21	-1.6666666666667	0
20.25	-1.6666666666667	0
22.5	-1.6666666666667	0
25.5	-1.6666666666667	0
CELLS 429 1716
3	0	1	2	
3	3	4	5	
3	6	7	8	
3	9	10	11	
3	12	13	14	
3	14	15	12	
3	16	13	12	
3	17	18	19	
3	20	15	14	
3	7	10	8	
3	21	17	22	
3	23	24	25	
3	26	27	28	
3	29	30	31	
3	23	30	29	
3	28	32	33	
3	34	35	36	
3	19	18	37	
3	38	39	40	
3	22	41	21	
3	41	22	42	
3	43	44	45	
3	18	17	21	
3	46	47	48	
3	31	49	29	
3	50	51	52	
3	53	27	54	
3	55	56	57	
3	58	59	60	
3	61	62	63	
3	64	65	66	
3	67	68	61	
3	67	61	63	
3	69	70	58	
3	4	71	5	
3	72	73	33	
3	5	6	8	
3	74	73	75	
3	73	72	75	
3	76	4	77	
3	78	79	8	
3	80	81	82	
3	83	84	85	
3	50	86	51	
3	25	87	30	
3	86	88	51	
3	52	89	50	
3	90	91	92	
3	93	87	14	
3	94	92	91	
3	95	49	31	
3	9	8	10	
3	84	83	11	
3	19	95	96	
3	91	88	94	
3	25	30	23	
3	9	11	83	
3	97	30	87	
3	98	74	75	
3	99	71	76	
3	100	48	101	
3	33	32	72	
3	99	7	6	
3	41	42	62	
3	102	40	39	
3	71	99	6	
3	97	93	103	
3	104	34	105	
3	39	106	102	
3	74	98	104	
3	38	107	108	
3	107	109	108	
3	35	75	72	
3	106	110	102	
3	34	98	35	
3	28	27	32	
3	111	112	113	
3	109	111	108	
3	59	82	60	
3	113	114	115	
3	116	9	83	
3	114	117	115	
3	50	89	118	
3	119	120	46	
3	119	48	100	
3	110	106	77	
3	120	121	122	
3	89	52	105	
3	101	123	100	
3	124	92	125	
3	54	26	68	
3	114	126	127	
3	101	128	123	
3	129	109	130	
3	131	132	133	
3	134	131	135	
3	48	119	46	
3	115	117	121	
3	136	137	133	
3	47	138	48	
3	60	82	139	
3	82	140	139	
3	141	142	138	
3	143	144	145	
3	122	47	46	
3	146	137	136	
3	113	112	114	
3	134	132	131	
3	147	140	148	
3	149	65	64	
3	150	151	152	
3	150	153	151	
3	148	154	151	
3	147	148	153	
3	65	149	155	
3	59	58	70	
3	155	145	144	
3	82	81	156	
3	145	155	149	
3	146	69	137	
3	157	158	152	
3	154	140	82	
3	147	139	140	
3	101	48	159	
3	149	160	145	
3	102	110	161	
3	150	152	158	
3	42	22	162	
3	157	163	64	
3	5	71	6	
3	4	76	71	
3	85	84	90	
3	116	83	85	
3	96	31	164	
3	49	95	37	
3	15	20	24	
3	25	20	87	
3	14	13	93	
3	25	24	20	
3	165	166	167	
3	63	168	67	
3	54	68	67	
3	17	162	22	
3	63	62	42	
3	35	98	75	
3	34	104	98	
3	26	54	27	
3	63	42	162	
3	88	86	94	
3	125	94	86	
3	105	34	89	
3	118	89	34	
3	77	4	110	
3	161	110	4	
3	111	109	112	
3	126	112	109	
3	47	117	169	
3	120	122	46	
3	38	40	107	
3	130	107	40	
3	121	117	122	
3	117	114	169	
3	80	70	146	
3	123	128	135	
3	134	128	170	
3	159	48	138	
3	134	135	128	
3	163	152	171	
3	158	157	66	
3	154	148	140	
3	151	153	148	
3	69	146	70	
3	172	44	146	
3	9	78	8	
3	161	40	102	
3	90	92	85	
3	116	78	9	
3	92	94	125	
3	5	79	3	
3	164	31	30	
3	19	37	95	
3	173	16	174	
3	164	175	96	
3	17	19	96	
3	53	165	176	
3	53	32	27	
3	118	86	50	
3	175	17	96	
3	176	177	178	
3	118	36	179	
3	78	116	124	
3	180	3	181	
3	169	114	127	
3	114	112	126	
3	134	170	132	
3	133	132	136	
3	44	80	146	
3	146	136	172	
3	82	59	80	
3	152	151	171	
3	64	66	157	
3	80	59	70	
3	64	163	149	
3	170	101	159	
3	136	132	172	
3	85	92	116	
3	124	116	92	
3	97	164	30	
3	166	168	63	
3	14	87	20	
3	87	93	97	
3	117	47	122	
3	47	169	138	
3	101	170	128	
3	142	182	159	
3	132	45	172	
3	149	163	183	
3	31	96	95	
3	162	166	63	
3	184	93	13	
3	97	185	164	
3	156	154	82	
3	141	127	186	
3	142	141	187	
3	44	172	45	
3	152	163	157	
3	163	171	183	
3	103	93	184	
3	53	72	32	
3	154	188	151	
3	189	144	143	
3	185	175	164	
3	175	190	162	
3	118	179	86	
3	125	179	124	
3	109	107	130	
3	126	129	191	
3	161	180	40	
3	127	126	191	
3	169	141	138	
3	141	169	127	
3	125	86	179	
3	180	181	192	
3	193	194	195	
3	196	194	197	
3	149	183	160	
3	143	145	160	
3	167	176	165	
3	162	17	175	
3	198	178	177	
3	72	53	176	
3	118	34	36	
3	185	97	103	
3	126	109	129	
3	186	191	199	
3	180	130	40	
3	130	180	200	
3	161	4	3	
3	129	199	191	
3	138	142	159	
3	45	182	201	
3	130	200	129	
3	192	202	199	
3	202	186	199	
3	129	200	199	
3	142	187	201	
3	191	186	127	
3	180	192	200	
3	199	200	192	
3	180	161	3	
3	142	201	182	
3	54	67	168	
3	203	204	198	
3	79	5	8	
3	78	124	205	
3	182	170	159	
3	151	188	171	
3	185	190	175	
3	204	206	205	
3	201	43	45	
3	43	81	44	
3	207	206	204	
3	57	56	208	
3	44	81	80	
3	209	201	187	
3	35	72	178	
3	57	208	103	
3	13	16	173	
3	183	210	211	
3	141	212	187	
3	45	170	182	
3	213	214	215	
3	205	79	78	
3	216	156	217	
3	45	132	170	
3	196	197	189	
3	218	56	219	
3	178	198	36	
3	188	156	216	
3	220	211	210	
3	57	103	184	
3	204	179	198	
3	165	53	54	
3	221	222	223	
3	209	224	225	
3	43	217	81	
3	226	212	202	
3	214	227	228	
3	211	160	183	
3	210	171	188	
3	226	192	181	
3	193	215	214	
3	3	79	181	
3	205	206	79	
3	186	212	141	
3	212	186	202	
3	173	229	13	
3	167	177	176	
3	72	176	178	
3	206	226	181	
3	213	227	214	
3	217	230	216	
3	196	195	194	
3	231	232	223	
3	227	213	220	
3	206	181	79	
3	187	212	221	
3	173	174	2	
3	13	229	184	
3	174	233	2	
3	234	235	236	
3	196	189	143	
3	233	0	2	
3	160	237	143	
3	237	195	196	
3	1	0	238	
3	173	2	229	
3	177	203	198	
3	198	179	36	
3	239	190	185	
3	35	178	36	
3	192	226	202	
3	195	215	193	
3	188	216	210	
3	220	210	216	
3	213	237	211	
3	154	156	188	
3	124	179	204	
3	221	212	222	
3	240	219	55	
3	54	168	165	
3	196	143	237	
3	195	237	215	
3	55	1	238	
3	167	166	190	
3	2	1	229	
3	1	55	57	
3	190	166	162	
3	204	205	124	
3	241	208	56	
3	242	167	239	
3	223	222	243	
3	156	81	217	
3	160	211	237	
3	213	215	237	
3	183	171	210	
3	228	193	214	
3	219	244	218	
3	56	55	219	
3	184	229	57	
3	57	229	1	
3	220	213	211	
3	245	246	247	
3	230	220	216	
3	220	247	227	
3	248	247	232	
3	228	227	246	
3	55	238	240	
3	249	230	217	
3	247	249	232	
3	166	165	168	
3	221	209	187	
3	43	225	217	
3	209	43	201	
3	247	246	227	
3	190	239	167	
3	207	204	203	
3	208	185	103	
3	242	203	177	
3	207	250	251	
3	240	244	219	
3	252	218	244	
3	224	209	221	
3	217	225	249	
3	43	209	225	
3	241	242	239	
3	167	242	177	
3	253	242	241	
3	56	218	241	
3	212	226	222	
3	249	225	224	
3	234	250	207	
3	239	185	208	
3	231	223	243	
3	224	232	249	
3	252	254	218	
3	241	218	254	
3	253	241	254	
3	239	208	241	
3	206	207	251	
3	224	221	223	
3	223	232	224	
3	248	245	247	
3	234	207	203	
3	250	255	251	
3	251	226	206	
3	255	243	222	
3	249	247	230	
3	220	230	247	
3	203	242	234	
3	235	242	253	
3	255	222	251	
3	226	251	222	
3	232	231	248	
3	245	256	246	
3	228	246	256	
3	242	235	234	
3	234	236	250	
3	255	250	236	
CELL_TYPES 429
5 5 5 5 5 5 5 5 5 5 5 5 5 5 5 5 5 5 5 5 5 5 5 5 5 5 5 5 5 5 5 5 5 5 5 5 5 5 5 5 5 5 5 5 5 5 5 5 5 5 5 5 5 5 5 5 5 5 5 5 5 5 5 5 5 5 5 5 5 5 5 5 5 5 5 5 5 5 5 5 5 5 5 5 5 5 5 5 5 5 5 5 5 5 5 5 5 5 5 5 5 5 5 5 5 5 5 5 5 5 5 5 5 5 5 5 5 5 5 5 5 5 5 5 5 5 5 5 5 5 5 5 5 5 5 5 5 5 5 5 5 5 5 5 5 5 5 5 5 5 5 5 5 5 5 5 5 5 5 5 5 5 5 5 5 5 5 5 5 5 5 5 5 5 5 5 5 5 5 5 5 5 5 5 5 5 5 5 5 5 5 5 5 5 5 5 5 5 5 5 5 5 5 5 5 5 5 5 5 5 5 5 5 5 5 5 5 5 5 5 5 5 5 5 5 5 5 5 5 5 5 5 5 5 5 5 5 5 5 5 5 5 5 5 5 5 5 5 5 5 5 5 5 5 5 5 5 5 5 5 5 5 5 5 5 5 5 5 5 5 5 5 5 5 5 5 5 5 5 5 5 5 5 5 5 5 5 5 5 5 5 5 5 5 5 5 5 5 5 5 5 5 5 5 5 5 5 5 5 5 5 5 5 5 5 5 5 5 5 5 5 5 5 5 5 5 5 5 5 5 5 5 5 5 5 5 5 5 5 5 5 5 5 5 5 5 5 5 5 5 5 5 5 5 5 5 5 5 5 5 5 5 5 5 5 5 5 5 5 5 5 5 5 5 5 5 5 5 5 5 5 5 5 5 5 5 5 5 5 5 5 5 5 5 5 5 5 5 5 5 5 5 5 5 5 5 5 5 5 5 5 5 5 5 5 5 5 5 5 5 5 5 5 5 5 5 5 5 5 
CELL_DATA 429
SCALARS Coverage double 1
LOOKUP_TABLE default
1.5313290820215 2.6046391164631 2.9993412734332 3.292435941046 2.3602872053621 2.6248883369667 2.7475606026677 2.7134077506528 2.5570050296695 3.1541710610157 2.8013642552741 2.8845176369616 3.1373669981007 2.6334483374222 2.7079269836704 3.0609476762046 2.5854318324791 2.8654297507702 3.1545592071994 3.2925217129241 2.9719377311212 2.18285450273 3.2196500617988 2.7665646640794 3.0217736524884 3.5341801187943 2.5815702930522 1.2770812999568 3.2525141511296 3.1869607572746 3.0016338574339 3.3384458002682 3.0266205250902 3.1540809643302 2.7843815055092 3.0515650866468 2.7659048240431 3.3810276404436 3.0221714889874 3.1376587318397 2.4845119914942 2.4923058438365 2.9608370134403 3.0891163124104 2.2973520384579 3.1198765964888 3.0751109596671 3.476994891949 2.2440240274295 2.9493588119842 2.5789277704443 2.9729186523513 3.2410490454696 2.5254013506076 3.3401556466296 2.5128120369224 2.801543477611 2.1752983606361 3.0268185099822 3.3917911072234 3.0223011479803 2.7608391002585 3.3689181160022 3.0766394570272 2.9554517755927 2.8846771201015 1.8900499576358 3.0696390964194 3.3166858734597 3.3666433855855 3.3815140148815 3.0310460967384 2.9066856643646 2.8667023184383 2.7270633809127 2.62188983127 3.1460824880002 3.2378770089534 2.8988622822269 3.4991037593081 2.7237479885385 2.9804959155986 2.9285200293949 3.3808553424016 3.3545201315682 3.3628827228172 3.2391859016381 3.546879887258 3.191259827305 2.6771372748738 2.969323314018 2.606798513959 3.1374559638833 2.6287811777646 3.1227595682986 3.4027147200839 2.9018915792264 3.5082723286276 3.4383930489973 2.6145983248922 3.3883384386149 2.9158812741599 2.2824401541634 2.6657210285709 2.8999376502156 3.0025662251855 3.0119943596165 3.0114708730076 2.8090104250378 2.4955038337357 2.7880876219624 3.0749107278022 2.5198708250918 3.0968071655247 2.5637638361071 3.0057015320577 2.9893515903911 2.3171555667559 2.3460601502086 3.4284328681743 2.8400981765374 2.7678631336339 2.9233629617774 2.8058241685359 2.4067408356169 2.7587750774019 2.9277010513286 2.7118876663064 2.6066744969088 2.7847787556315 3.0140412730542 3.0060595757991 2.8422748359793 2.352482794968 3.0138062480562 2.9090733235582 2.3436091036425 2.1608315158749 2.5035821736782 2.2358948926742 2.664571445305 2.917835624806 2.6181320005739 2.8506922661212 2.8346416499451 2.9298433385312 2.7578154326627 2.6067540718959 2.9494165606507 2.7432246462005 3.0822026000826 2.7866066535484 3.0014334696634 2.7725162667269 2.905165823347 2.6990273329569 2.7454641592171 3.1082176640473 3.0344604691405 2.8611484253626 3.15468525673 2.7901117466016 2.7656567353801 3.4233250439061 2.8647264279871 2.5976370599875 3.0844197482934 2.6200309968524 3.1048696809954 2.6298214186455 2.5893883027072 3.0296668235254 2.5795326389195 2.7364201753044 2.7458867012851 3.0013311709761 2.6586351795327 2.8824969802467 2.4196940327966 2.3668609068361 2.7158532188071 2.4890081425314 2.2565271239461 2.4980723023983 2.3171439653506 2.5472782369276 2.8173595871021 2.3806617318247 2.0737386634109 2.4939980867211 2.5544683404598 2.3450038682668 2.6156415936584 2.8103926513669 2.7897457400184 3.0317835170327 2.5290275717254 2.7899007557784 2.7815026461689 2.579080665535 2.8843290947184 2.7216342096139 2.5355545735088 2.8299440129132 2.7452616541449 2.9167974311072 2.7641675833402 2.1500560144876 2.5339495153475 2.4260694628461 2.0520885346529 2.9386488211174 2.5547985875293 3.0555021059004 2.399792346256 2.4926983988071 2.3231465898774 2.4898402083466 2.4594238699023 1.9375224094515 2.0048361762431 2.5168721694031 2.2626965749848 2.0985088945381 2.4102271142303 2.8401448011091 2.3772648041405 1.8169036121337 2.6547444399765 2.3988103640796 2.6635720569496 2.0897662271185 2.2822882766528 2.6242720441567 2.4984269551097 2.734966281765 2.4858362008803 2.5854451244102 2.4844459461793 2.3936556543867 2.4041147915657 2.5695121313746 2.2571356854538 1.4709269594413 1.6447306700383 2.2670437028046 2.3981279773148 2.1521688206406 2.4348614544415 2.0238999977713 2.4177735538947 2.5923696552508 1.8325014089351 2.5757523582078 2.2917676090509 2.6449970890854 2.4881383027565 2.6000792832112 2.3909157061873 2.4051508935848 2.2303979389357 2.5094335158228 2.1844999152016 2.1815186935554 2.4003688768201 2.0576503322799 2.3449352804582 2.3468426033407 2.2928525050217 2.4786848111318 2.2182824499995 2.7384738242192 1.8497890843727 2.5542996835318 2.3748594138084 2.5886611411459 2.4649298034135 2.0684882694615 1.9737570485785 2.0884170254643 2.1290912145395 1.6989739013359 1.2935416483333 2.3581901624679 1.8921449513979 2.6794279447305 1.5210575750931 2.2924970836797 1.9569646687604 1.962689283519 2.4435886312398 1.4873605824039 2.3025188229053 1.9075845635884 2.5313110733347 1.8271359566024 0.95255127706492 2.2301683384124 2.0632828280142 1.7574416242367 1.659924751027 2.1396620058411 2.4611444308464 1.2750682425236 1.5829864716592 1.9429239322922 1.9116344074492 1.1589251126114 2.0354328299537 2.20935508121 2.073976999053 1.4238493781515 2.2790504251614 2.0598627811231 2.0782458868597 2.0333797594076 1.950147021772 1.9530937559559 2.3529763530479 1.9222388010351 1.3916254140617 1.7107239430421 1.6359257122636 0.89302669106755 1.4210449438468 2.0628225661052 1.7514338612401 1.9437233085927 1.8738870342196 1.7451062045805 0.80275715640904 2.0670573190909 1.5718232906542 2.0975812680228 1.7516601508278 1.3782852377017 1.8517878689518 1.7735487281576 2.2942420125815 1.8220892342446 2.4418052310196 2.0356033493533 1.4736732465005 2.011713089531 1.7719942371602 1.7353369791039 2.2566811310674 2.2648957245759 1.5570391254673 1.0611968624416 2.5626618631949 2.0040052070651 1.6716955284164 1.2943857568983 2.1439964197348 1.638762317247 1.405769411654 2.3216132953239 2.18697845101 1.1162393122462 1.5482633418326 1.0272942592677 2.0084144119456 1.9642462256629 1.6476866099628 2.1400192517849 1.1924161486151 0.85016268194184 1.0857380977561 1.659488181124 1.5753548844825 1.6241793409134 0.82452543471891 1.6189039067846 1.2816156930663 0.85926865689589 1.0080977974588 1.1425915660164 1.5317383653266 1.1084603874482 2.425280752351 1.7266176730954 1.7666425249711 1.9220951993056 1.0335351885464 1.8671956379108 1.6455076036816 1.6284253772488 1.5234642420761 1.197624073329 0.91989564912292 0.63558277101527 1.552470792619 1.5660644935015 1.759646272295 1.185236602704 1.6339232790525 0.88808938257354 0.90506563835532 1.6430897809545 1.4196237029105 1.1558148072123 1.561162390067 0.83837166615929 1.2246014022454 0.58307542254333 0.74364900207972 0.67713998600323 1.2528555519817 1.4665161383787 1.3364131538759 1.1270208410867 0.74959185891321 1.3472600687638 1.0026848800367 1.6054766095694 0.93960647129591 1.2981315715869 1.3703118294014 1.268090822662 0.8217509650951 1.0849678458237 1.4286322918751 0.72285610312814 0.6512062840026 0.71125282278473 0.97124597780459 0.92328700511704 0.84187419305334 
SCALARS Marker double 1
LOOKUP_TABLE default
0 1 2 3 4 5 6 7 8 9 10 11 12 13 14 15 16 17 18 19 20 21 22 23 24 25 26 27 28 29 30 31 32 33 34 35 36 37 38 39 40 41 42 43 44 45 46 47 48 49 50 51 52 53 54 55 56 57 58 59 60 61 62 63 64 65 66 67 68 69 70 71 72 73 74 75 76 77 78 79 80 81 82 83 84 85 86 87 88 89 90 91 92 93 94 95 96 97 98 99 100 101 102 103 104 105 106 107 108 109 110 111 112 113 114 115 116 117 118 119 120 121 122 123 124 125 126 127 128 129 130 131 132 133 134 135 136 137 138 139 140 141 142 143 144 145 146 147 148 149 150 151 152 153 154 155 156 157 158 159 160 161 162 163 164 165 166 167 168 169 170 171 172 173 174 175 176 177 178 179 180 181 182 183 184 185 186 187 188 189 190 191 192 193 194 195 196 197 198 199 200 201 202 203 204 205 206 207 208 209 210 211 212 213 214 215 216 217 218 219 220 221 222 223 224 225 226 227 228 229 230 231 232 233 234 235 236 237 238 239 240 241 242 243 244 245 246 247 248 249 250 251 252 253 254 255 256 257 258 259 260 261 262 263 264 265 266 267 268 269 270 271 272 273 274 275 276 277 278 279 280 281 282 283 284 285 286 287 288 289 290 291 292 293 294 295 296 297 298 299 300 301 302 303 304 305 306 307 308 309 310 311 312 313 314 315 316 317 318 319 320 321 322 323 324 325 326 327 328 329 330 331 332 333 334 335 336 337 338 339 340 341 342 343 344 345 346 347 348 349 350 351 352 353 354 355 356 357 358 359 360 361 362 363 364 365 366 367 368 369 370 371 372 373 374 375 376 377 378 379 380 381 382 383 384 385 386 387 388 389 390 391 392 393 394 395 396 397 398 399 400 401 402 403 404 405 406 407 408 409 410 411 412 413 414 415 416 417 418 419 420 421 422 423 424 425 426 427 428 
SCALARS Resistivity double 1
LOOKUP_TABLE default
131.48290420278 86.596033588631 91.146981857601 77.618610123465 87.406305337074 90.49507091542 90.785253362344 67.135567647259 86.232708905985 97.712948666011 66.940046797879 63.991901721841 53.395063355971 70.450038008312 68.645712466435 77.371068951012 89.534081712893 62.352591731456 121.42715839202 53.5598362874 52.407262718928 179.31487212546 76.584076023406 92.111633807844 69.507609016778 71.247667579364 53.511325486243 187.1605288309 42.796744659309 41.925174468594 72.235383513089 111.66062817148 77.520828212753 49.500513097795 84.406855416893 169.02022779329 86.862005675198 231.34606034127 188.26448704694 95.171144514996 85.620203507144 123.24422654035 79.653595335135 65.330205643749 71.873676384461 48.660203869522 80.627898042011 215.74630876278 79.263579703128 89.745970405201 63.631755529934 85.137432128757 66.553788636552 62.21413716823 41.344939667554 67.446685958332 65.380164081897 75.092766088076 119.59106106133 86.113014530146 112.51575318749 97.282418975504 86.346512886162 45.836450475809 97.408342763296 81.916149445791 87.340388798478 51.719072964565 86.191251088124 53.404681389875 125.63706447355 90.379882241589 132.12282859113 81.906908744591 83.259813235928 57.285853916405 75.625840153726 57.999507135127 93.943051991581 119.59435816859 66.629479763309 109.70585162002 84.725664275037 73.868295582381 108.1188745597 87.487177327429 81.809769242292 71.459655376918 129.79001406482 84.075147569863 76.658675213785 96.692019546289 129.50288504793 88.789455474951 42.919462643924 42.954466466118 85.513633108615 89.811305872068 46.047982192408 103.19875828558 222.95915886037 145.39029607269 127.86724829004 92.344775443326 90.062988677349 60.421053851499 91.858299129409 49.379695805661 92.991890329267 70.089669277827 231.98038432182 193.05488352186 91.563086935298 82.079397042306 57.793146242021 48.526493499347 69.271401364469 130.48191333465 65.704409640638 66.071332447956 284.43585164261 109.06727640587 119.51613806443 107.2742621761 79.869279460934 82.360404443782 307.42902542908 61.000771871624 149.94869657801 82.559549618134 88.362959711044 105.21291253324 75.335196196083 67.89554980555 58.881021542045 86.516864456633 74.348922773964 82.258218441885 73.922493985735 76.516717801996 74.426727608316 87.543618313868 67.60308259348 47.936101345032 111.67567448395 56.760741861951 57.810899415984 60.423917906503 49.23366729934 71.489087730088 65.665521742441 81.311999778519 88.786355126195 83.938643018766 66.547483672582 76.996725473419 110.06870881014 80.675366382912 121.25902332859 103.87505145155 88.923784438669 114.50575985722 74.373815419133 139.77487422042 89.813379768842 108.14999590275 85.684362421056 168.64507716114 281.67903490943 91.71478270233 102.25089615986 59.915726714402 104.57714379713 78.265734859536 88.4164383695 129.44153943721 69.915600628982 82.505760722435 92.217972487743 71.394424151976 60.076426534363 81.159745548955 69.846200660704 64.711044499187 63.172825391174 56.004386565885 82.602141297733 67.040625106301 99.850353360411 100.01359323061 77.590329007829 96.812690057487 110.14816080006 87.335779287493 78.441675498392 51.048781229968 104.58673345275 78.70979526077 92.97732941998 173.19653806294 156.85111407512 67.620267870633 102.53772991445 110.60834994915 75.945973098911 89.066507096512 80.479517817956 75.397112240338 71.925696316659 79.484683042179 79.679095026311 96.98723405482 111.85010302178 109.55186620962 131.40452009226 105.62167290136 102.41942078323 64.092539477355 70.595298714316 86.476076801382 80.53174527302 110.41352136103 109.22112980975 144.03602368551 131.02753081994 206.35955828067 124.52815243755 92.752821445025 68.59703278556 100.70389229292 118.06528253348 76.940527248254 76.640087875307 92.385739902917 94.108412652242 93.66055503308 88.925630738619 90.023661078223 94.223340596278 118.85932899971 114.02307587385 86.864093043078 101.42380102676 141.9429766852 134.7457381239 91.103097156445 91.486606494659 77.873972913614 70.062282902839 122.39290003843 65.22390026121 90.566905774291 93.621425070021 83.633661801062 96.226040745907 95.567012204725 93.635852830408 85.635935846308 91.441713229782 121.49914498641 158.41439165646 90.817627045748 101.92622058953 102.18556409925 91.811416152825 163.19236759835 98.957723158903 95.937057340385 95.237518867075 89.553027264965 152.32682599303 74.424847148244 184.8636382754 88.629882173628 93.096828242401 123.28179915553 124.6613781322 85.3480100843 149.41407314997 189.68160577464 182.51756327573 223.26914153596 180.08552335681 139.18740426933 193.52718599686 97.510589853273 134.6606633877 81.71185956516 108.8103414041 142.46399287147 129.45465320624 154.27311356515 97.90235834971 151.6083475024 106.30914285419 130.85070617489 250.5211956356 107.70869786482 122.82671233722 123.58909405742 110.71265601272 135.76726815375 57.863472033031 256.52424632292 242.63744303245 196.05596190761 129.94830504355 182.30728057105 99.653469982887 116.62201464365 116.91350517103 157.24079616174 102.96666501296 122.61252911144 118.81639227674 114.12068481528 90.482858803352 109.59805225398 78.83335997649 145.63827700542 166.55359454111 176.49385218528 136.68115517965 297.66472284704 163.37635158873 123.5749178892 179.16539193791 97.920879955959 93.223132606718 111.57854427971 417.67427084559 124.05366576905 122.98038703562 106.02154745294 132.35149223293 149.82159162409 102.56153788634 175.35017912611 113.28251506399 113.02607656308 95.352233959172 113.54875000945 146.31174991535 121.63995636134 134.31544195625 126.87569577707 105.96530532432 113.58415357977 202.38193973576 218.0015098369 65.323448794595 120.81763630695 139.53656210245 167.78449718011 89.033166652736 121.1368842453 160.82117919785 78.548187416448 115.41983431016 219.73015903823 184.66180380078 300.44651198299 160.12465943466 109.05454044577 139.82541423292 113.26148206296 171.04944798669 262.3558435925 218.74969874522 110.11897512637 129.58766446391 136.13984764935 239.62011973733 166.31990512387 190.78817170827 277.00064545572 208.86878114114 192.95067219073 214.49449095814 260.75897525943 69.92548710502 202.02786972505 228.99843451602 210.00295000743 214.47172163634 122.72149287609 250.3908853306 121.5746657546 225.00982057292 336.06513370833 240.98971043524 290.42203447091 235.46872758837 235.4877904019 232.06157242008 259.73250619691 174.46024519249 362.48791657105 264.37380515796 182.0506048253 251.53806997132 365.48533450413 143.24398688581 308.9316307415 267.30632200643 309.44218667847 314.22834277472 355.94157374566 208.24597686957 263.53617829439 259.40752723235 279.43944016176 262.45473949147 325.68613575623 355.75774068726 215.91196158299 323.03030165019 225.10439013768 194.10144185451 328.20366359089 404.02635873869 312.87089597248 237.70473384597 291.60741441824 235.98571949359 225.72042505142 402.90027927384 402.69269915702 394.61379507981 
SCALARS Resistivity_(log10) double 1
LOOKUP_TABLE default