# vtk DataFile Version 3.0
d-3__ created by libgimli-v1.5.0-1-g5991b6ac
ASCII
DATASET UNSTRUCTURED_GRID
POINTS 1483 double
3.3802423101098	12.435481574566	-0.57001420684378
3	12	-0.2857142857143
3.4959596309848	11.998298039034	0
3.2490070092203	12.168560129388	0
6.0395510135596	13.367156253372	-1.2757999763971
6.5930002103947	12.023472734859	-1.2922192071349
5.4998599382803	12.552571297657	-0.59337769664261
5.29662096318	11.932351047571	-1.5392209346082
5.6153020589615	9.1440579133635	-1.0774777831171
5.7237069713611	8.5589744845549	-0.30827017969781
5	9	-0.2857142857143
5.3151026533923	8.4249591108801	-0.38240156963578
2.3178923476779	4.1926464382665	0
2.5373292327812	4.4716333182052	-0.48281884804687
2.3342974478463	4.0018571812202	-0.30572640106363
1.9994701911036	4.4258543307655	0
4.8968211033092	12.507755029533	0
5	12	-0.2857142857143
5.2932790228536	12.494788035524	0
0	0	-0.2857142857143
0.54768630893449	0.55020446432687	-0.60775225926193
-0.16846798780902	-0.24002860812406	-0.65332445545953
-0.28063481777066	0.41453578455018	-0.44890469943706
7.7	3.575	0
7.3102059000399	3.7470939102263	0
7.7	3.6732286664853	-0.53772532608145
7.3176226410905	3.2857280588852	0
-0.7	-0.10798167686939	-0.47517111104905
-0.7	-0.57707899562378	-1.1376990549501
-0.7	-0.61986630133594	-0.43486724047509
6.3962361866998	10.611290418241	-1.3182185489848
6.565939673393	9.5694509864085	-0.57379796778735
7.1295911592009	10.496363016677	-0.48219980545192
6.3839624611364	10.341052129245	-0.35036617584397
7.7	14.3	-2.5
6.7623683783591	12.987112326146	-2.233077027779
7.7	13.059020885286	-3.3539705522597
7.7	13.327367479896	-2.129915020979
1	6	0
1	6	-0.2857142857143
0.93236760237426	6.49128333619	0
1.3454573625665	6.353105459937	0
2	5	-0.2857142857143
2.1684298754346	4.7403793023811	0
3.0226729813355	8.4836106439452	0
2.5164096947204	8.910651700233	-0.41109082170818
3.4071201441719	8.4167381876838	-0.59109415332551
2.5374808587914	8.1383747261781	-0.35604109466584
6.2778911301719	14.3	-0.61136458754231
6.2225356773765	13.691717475418	0
6.5208076177088	13.495118289851	-0.49928801204061
6.7358646795693	14.3	-0.39005656748015
5.7965188279432	13.281940723964	0
5.5320359851605	12.925291312368	0
5.353113789845	13.264183036004	0
5.5919457801018	13.101154188917	-0.33537516396337
7	10	-0.2857142857143
7	10	0
6.5010306427949	10.010760669106	0
6.8196744207924	9.5136576917357	0
7.7	1.1375	0
7.7	1.6430719769933	-0.42557297445049
7.1939383721229	1.4724531054162	0
7.7	1.625	0
6.3572581294301	1.4772201134971	-0.96507376287322
6.5574763981385	0.84898833643366	-0.48332647821142
6.7774291048203	1.7003141153393	-0.4123635555875
6.1433933962903	1.4220674799247	-0.28622251631329
-0.7	9.1984657118068	-1.9278839451739
0.33291529395702	8.3305676904572	-1.2970017952003
-0.7	8.1442617177323	-1.0898260028896
-0.7	7.644268062563	-2.0766032868031
4.508194357046	8.6258793740749	-0.60770874662543
5.0095189690676	8.5009469809039	0
4.7609249278557	8.7686419230913	0
6.2306672701993	2.67753718	0
6.6360398560532	2.4670661479797	-0.44686919005428
6.4910302172834	2.4939022421641	0
6.1550873755842	2.4572757142813	-0.33684154297057
1	1	0
1	1	-0.2857142857143
1.4901571161019	0.99574153349402	0
1.1736530561382	0.72346383359363	0
2	4	-0.2857142857143
2	4	0
1.6440539242474	4.1532454240512	0
7.7	6.9501255673919	-0.74418826283982
7	7	-0.2857142857143
6.7521552376889	6.497772044976	-0.66059363300197
7.7	6.3887218416049	-0.46884913673037
5.9482896260331	7.5800048202495	0
6	8	-0.2857142857143
6.3095291646476	7.6896230263426	0
6.1432247512519	7.3579252770212	-0.41388970597853
3.501272057481	12.437082442362	0
3.3297831413816	12.805427976196	0
3.6823393063421	12.851671876304	0
1.3671388209093	10.633374397873	-0.4152980605108
0.95248763025238	9.835503527633	-1.7808732395437
2.3518021577517	10.495200039554	-0.50930668321109
1.5373497846005	10.021005779616	-0.41781002197689
6.2054585007625	14.3	-1.3884356875417
6.9442913034148	14.3	-0.89278753613404
1	8	-0.2857142857143
0.54167473049383	7.7707286368021	-0.37916050195481
0.44975345341211	8.3808810318019	-0.31136669048163
1.022076618805	8.4121844676845	-0.45670843222423
0.89173681858685	4.6122796653579	0
1	5	-0.2857142857143
1.2386083631299	4.6841794176855	0
1.3923592539172	4.7130963353432	-0.25978315417498
6.4242299347383	5.6840176993625	-0.35514079575845
6	5	-0.2857142857143
6.3424541740313	5.2754910113697	0
6.0447933133998	5.5049876953384	0
5	2	0
5	2	-0.2857142857143
5.5190673049038	1.9208326821789	0
5.2306444928855	1.6547875838902	0
5	13	-0.2857142857143
5.257359886178	13.540476325965	-0.63012071696907
0	6	0
0	6	-0.2857142857143
0.066757795936057	6.5008369551487	0
0.29243888553297	6.1743316976873	0
7	9	-0.2857142857143
6.5033796411008	8.9981073418213	0
6.5607922823332	8.4440251373986	-0.63122800754088
6.811726958696	8.7028726276344	0
7	5	0
7	5	-0.2857142857143
6.4986646723997	4.9192017057136	0
6.7141996182955	5.3303468264748	0
7.7	9.5988491781319	-7.4736716195817
3.1507199964473	10.394874003632	-10
4.8663216648816	7.3792654266676	-10
5.1015502438684	11.553440122249	-6.405163284031
7	7	0
6.9589015254993	7.4884372736447	0
6.761634669635	7.2408783569561	0
6.0574437090791	0.20878539066113	-1.8779478182653
4.9838025543493	-1.3	-2.1179854334408
6.0308685444023	-1.3	-3.5425074203685
6.440522236286	-1.3	-2.0103523001383
3	2	0
3	2	-0.2857142857143
3.0105846506	1.4855923993349	0
2.6480485575569	1.6700894103009	0
5.0527203000088	13.535479310798	-1.5373151531841
5.0246691847863	14.3	-1.036131499603
4.1300067609037	14.3	-1.2024507502556
4.4744197407865	13.547407617085	-0.63586628370479
2.5813517996865	9.6286485974984	-1.0236151505326
2.2955236368793	9.5881134365907	-0.29154811067367
3	10	-0.2857142857143
6.4248505083522	12.522044346884	-0.42559946143008
6.465073985677	12.51782996062	0
6.1644652963082	12.36965297069	0
6.3832046574853	12.135664356038	0
2.9908655166747	12.498069465114	0
1.984703560175	7.5906357794687	-0.50777967523709
1.0508409188237	7.354634772545	-0.95680796450018
1.4515039911109	6.5829264157992	-0.56173008002516
1.3866216751759	7.5118935788728	-0.35488362790971
2.45	14.3	0
2.2168273415577	13.627179222019	0
2.4554693735383	13.497784276817	-0.39727655195048
3.032551925238	13.762466584345	0
6	11	-0.2857142857143
6	11	0
6.4843452951013	10.966514281357	0
6.2440599782187	11.234710090977	0
5.5	-0.5576923076923	0
5.247952850371	-0.29481663567353	0
5.5452342683804	-0.096294524539033	-0.49623355575102
5.1016398375367	-0.61489919294387	-0.38960315167385
2.3232496140345	4.0110297188843	-1.3835068702753
1.6586320571652	5.8268322896535	-1.5213554090482
0.71002746520551	3.976198472286	-1.505315421377
1.3296414347056	4.9089994064226	-0.82629172929831
5.6	14.3	0
4.6510156691765	14.3	-0.56274723813486
-0.090060726359069	5.5363033123106	-0.44581840212762
0	5	-0.2857142857143
-0.38456492153953	5.1805342841446	0
-0.7	5.0205501441189	-0.32507149572551
3	13	-0.2857142857143
5.1848675157348	3.2965660830064	0
5.4046165570399	2.9501485228537	-0.43988698776777
5.486289771732	3.4981838484395	0
5.4682750147717	3.0660382780841	0
0	8	0
0	8	-0.2857142857143
0.5178658825659	8.020802151125	0
0.25864598874121	7.6639427314904	0
6.7098208972434	7.2950601162224	-1.3269022195366
7.7	7.949747446039	-0.91833665053736
7.1577047253729	7.4844276204668	-0.64272934527953
4.5892004575887	3.5369189576522	-0.55981654583505
4.4420188491858	3.4660037233365	0
4.711527897636	3.7375259681419	0
4.3494632088922	3.8023533541114	0
4	6	-0.2857142857143
4	6	0
3.9913416390327	5.4988534517732	0
4.5093195747582	5.724109532591	0
1.4	14.3	0
1.5	13.55769230769	0
0.89284349994875	13.714781914708	0
1.2292962491126	13.670420041977	-0.37788942865261
4	9	-0.2857142857143
4	9	0
4.5502440226935	9.051086551406	0
4.2963154051231	9.3907765114078	0
4.5321110402369	7.5028925212181	-0.60552533206341
3.5085861108931	7.3893844432383	-0.64873189634878
4.0050480592533	7.4977657988521	0
4	8	-0.2857142857143
5.8961095330637	-1.3	-1.0125722125019
4.8982045728458	-1.3	-0.82217786726149
5.2296982103621	-0.31621891710017	-1.0679345669244
4.9010483556055	1.478997710586	0
4.5631533182214	1.9074133665015	-0.41231302454656
5.0320642355688	1.4518180616801	-0.36509190625555
3.5357179442866	0.46434418042464	-0.60031716899974
3.9407498163335	-0.4411178910574	-1.1087857494349
3.2826824657074	-0.47747544834602	-0.50866572047373
2.802260468126	-0.22902113419037	-1.4542342115515
1	13	0
1	13	-0.2857142857143
1.1191337005982	13.329221525091	0
1.4884720276527	13.02962190928	0
-0.21681247778723	8.5792000107362	0
-0.35118339610893	9.0917088673227	0
-0.7	9.0968147603684	-0.35256881313688
-0.7	8.9375	0
0.51662331659314	-0.40156299802931	-0.67799391089861
0.13474046208011	-1.3	-0.85683826964205
-0.16941603187845	-0.57512411281067	-1.4019543009948
6	13	-0.2857142857143
6	13	0
5.8068477026831	12.499749736815	0
6.1890713266052	12.67695534294	0
2.5984255358496	5.4578875982232	-0.67264342113488
2.2172109403706	5.4325217687574	0
2.4824672258873	4.9705265694472	0
2.6598112065826	5.3330483814808	0
-0.7	0.5146532048839	-0.51418317722913
-0.7	1.0492756199945	-0.88024243711367
-0.37698118088761	0.89350663208132	-0.33360419980628
-0.25096134668857	0.95145340086689	-0.90448711690516
6	2	-0.2857142857143
5.4002158317804	1.7678073061348	-0.50898482673054
5.8183999242367	2.5164331321023	-1.0840550371572
-0.13917028340788	5.5182991349521	0
0.31578338747353	5.7567158690792	0
6	12	0
6	12	-0.2857142857143
5.513035862904	11.994753403328	0
1.5285536174902	4.2362319729344	-0.43851980589517
0.57100063419133	12.499134596467	-0.56842257570583
1.2565986295401	13.42724014175	-1.149557674079
1.4486633887383	12.69302170761	-0.31714242590465
6.65	-1.3	0
6.903739311401	-1.3	-1.0953527719967
6.3980205255852	-0.38130956989248	-0.5855507841991
7.2175457166608	-0.5710098692386	-0.51938212652516
3	7	-0.2857142857143
3.5055774955602	6.7395375676091	-1.4094768265058
2.383927159844	7.4535505157878	-1.0620490471275
1	4	-0.2857142857143
1	4	0
1.2222221827385	4.2954008280594	0
0.82345085295407	4.2815033897546	0
5.6	-1.3	0
5.790373644402	-0.65252487431205	-0.38521635467031
[...]
CELL_DATA 5483
SCALARS Coverage double 1
LOOKUP_TABLE default
1.5038009725704 0.75226513642455 1.4161775689718 1.5688866293383 1.4460952791017 0.88813989217833 1.1497082436478 0.68255807271177 1.1252102165154 0.21689652222042 1.8527187469466 1.6727135629922 1.4842524574239 0.72423681924427 1.2460432226324 1.801278427489 1.0007640245842 1.1572944883735 0.6554636614064 1.658757767965 1.4250722118824 1.7107354405105 1.9048424040066 1.0888568416221 1.6106801113474 1.3924676854611 1.2311766986939 0.58662854522264 1.3650401513211 1.6603906114087 1.5950439036991 1.6974549734429 1.2073839871743 1.7993740107894 1.493057337685 1.7775245791303 -0.36783520764815 1.8145437607124 0.34992868563886 1.7082758872356 0.6251622982545 1.3595040360815 1.38965569924 1.4624259292585 1.3183376390136 0.88902308480916 1.8283774830095 1.1023320478676 0.96236670670572 0.57600043298745 0.69366313123231 1.2924872030763 1.3802396237135 1.5179836723946 1.7145065648213 0.97684216033638 1.5001912591315 1.9276925556856 0.85891220256942 1.836746047353 1.5310099906956 0.70793414109131 1.3917516693481 1.5218977627557 0.82066514388368 1.5901005957828 1.1709238927724 0.66022150439628 1.7114079304919 1.5900624563137 0.83861220944809 1.0912496543005 1.8121544192428 1.6928104007776 1.5411295765931 1.0309430732299 0.68259369803123 1.2887135553103 1.9212058002923 0.7061893995377 1.1561665553219 0.82320468483412 1.4625141453799 1.2067335098339 1.4925791426684 1.0085239174756 0.62584912668798 1.7828028027029 1.7763051724282 1.5367299766591 1.2008923710717 1.3771141757096 1.2892737544219 1.2151853655238 1.4402830441447 1.6342744075304 1.5791007751059 0.97781997827517 1.6523212265257 1.6899389137711 1.2934984480565 1.7935501133461 0.99180992150226 1.5931470935569 1.1095897706122 1.5740275280321 0.3793351855129 1.1612732042965 1.8371454383298 1.8945953422127 1.6869907267459 1.2881200875192 1.4914985148199 1.5559730620555 1.158766486937 0.74363570019215 1.0167359602967 1.0495068616766 1.5595685052554 1.2057180919551 0.96642993965466 1.6278136671118 1.2624157433545 0.44119180985669 1.3266255225122 1.7835205997394 1.0697610932115 1.7976567331449 1.3259008013821 1.5591275807689 1.4988461015335 -0.1747298004032 1.0953888488419 1.4396081617928 0.82781994448832 1.596503309918 -0.35849193524346 1.3631064725839 1.3742875818311 1.8579078437056 0.59410002250789 0.19562304580177 1.805333459988 1.6947886090549 1.5261655179603 1.4056113133703 0.90098994708844 0.79894982829146 0.96072639570561 0.5905598645429 0.42624520991678 1.8714117501638 0.82175373416298 1.1927838253648 1.4150516410078 1.6259584313216 1.5022292853641 1.0501066482936 1.7312463260285 0.84102776752459 1.3867244256228 0.76016601462048 1.0156327497912 1.5936381794042 1.8692546265177 1.6556546770733 0.60605446975432 1.8564962898746 1.4200878213792 1.7821154570215 1.5695893055704 1.1654872148788 1.3425701284801 1.8517505159002 -0.019578139622834 1.8519474220634 1.9174427374697 1.7703646084067 1.6856861630331 0.18111262289911 1.5554955246107 0.44319929031694 1.1224681079998 -0.040083676012565 1.221304898041 1.8869481658336 1.3954452725432 1.5760139252262 1.8255677917037 1.3325790167478 1.8788764603613 1.3363807000169 0.73542332221548 1.6040625371499 1.295985516238 1.0848053675015 1.6371011326972 1.5464034427365 1.4013580897953 1.8452913168718 0.66389936722761 1.9564247812268 1.4815503707068 1.5124930739485 1.9487019521222 1.6784689800554 1.6373179570188 1.4867911528964 1.0921454988634 -0.39930460657872 1.3705615428795 1.0759308610452 1.1813349061988 1.8951166275064 1.8260826901793 1.8809654273575 1.8133683863202 1.5937119321203 0.86603919483227 0.86074752407045 1.3810902800726 1.7515534154991 0.58430692060599 1.9015793317697 0.7540898147005 1.6919786809342 1.5964827193411 0.89067718976538 1.9040542074415 1.2045594008147 0.91675940437445 0.88035093086977 -0.10192299713282 1.8684477010547 1.4919331274406 1.1837522787323 0.59513808333678 1.7487282126775 1.7350802327264 1.5490504001257 1.7585656270315 0.7041674297842 1.5670957677108 0.97717539924918 1.5891746791902 1.8428039878352 1.3451851470687 1.5342089667102 0.58678391193599 1.6167117976823 0.69661936596187 1.6246742350862 0.49435832424328 0.22361955373643 0.060430409008998 0.46263299449489 0.8826817311283 1.8656627769185 1.3195221029632 1.8628504443978 1.107155310602 1.1132156945378 1.5422223233309 1.3546979620258 1.9158854229899 1.8268880222646 1.4636674929765 1.8484178868504 1.5553909116777 0.77918561786575 1.8350678293753 1.8854309078963 1.5316425499715 1.4327957769285 1.846526806171 1.5213877893547 1.8661791608488 1.58283470982 1.6190325213695 1.7276168130245 1.6708359981339 1.969910216225 1.4515588631786 0.53990872179444 0.51715374484356 1.2829429244228 0.98711914492915 1.5806708333903 1.7030330867456 1.2995503984429 1.5117632813887 1.8368858604346 1.6792133664774 0.63427966492228 1.4536332602302 1.7007409486356 0.73361903480428 0.39077623710157 0.85956722431145 0.51275065556536 0.45832411143508 1.5828356189925 1.3729351583995 1.0598619195859 0.82333800013629 1.1340004724877 1.6492234418247 1.3088283847039 1.5409287087915 1.1122871804491 0.74187991419041 1.5931170818753 1.2960233378707 1.241957036033 0.66781284097114 1.2115660077971 1.526484808633 1.1025805442661 1.4566346393051 1.1920613846237 1.8316291908239 1.5970142873014 1.5486132410959 1.4374844488351 1.9240710603924 1.2788514088914 1.6936389648096 1.5733740702866 0.47535400301889 -0.60574403107039 1.6442530703753 1.2255279516521 0.77126317318183 1.5457564456036 1.5541796093347 1.8201518277907 1.8901687654787 1.0065834211933 -0.55734146197484 0.87425938778414 1.4002867573285 1.1980697390071 -0.2262120460826 1.0935959448353 1.0551012905373 1.4165516792575 0.93325510287039 1.6033558303486 1.4235260779603 1.2623805013606 1.5301138062067 1.7378920893859 1.7332304222757 0.63217653696505 1.8834560622064 1.01451942984 0.16852888429312 1.3237816756216 1.6910315327098 0.5237194051054 1.3059863776994 1.3740293158393 0.76548577059053 1.3943065393546 1.7285614695923 1.4866181620945 0.90298192618263 1.7511147955246 1.6820629164493 1.2439808444686 1.3047170100913 0.98363887414404 1.4812174750024 0.30322118520827 0.61181579091993 1.1506447140818 1.2944807297609 1.5251939677467 0.77397379414512 0.49288255321195 1.8113094871101 1.8686549139929 1.894558505871 1.6082062060857 1.3767355649482 1.8810833034677 1.8490812509379 0.5869353825516 0.84733760348059 1.5011838686863 1.0023144965515 -0.21660735385097 1.5937133158912 1.4190093341154 1.377915671337 1.57816675385 1.6333683423652 1.4743145507015 1.4416541444161 1.5194402970492 1.0671539069854 0.83283093254223 1.0237911065242 1.730441016888 1.9698107604777 1.2476149903769 1.3700705690245 1.7091743629468 1.8433806755785 1.2685479450218 1.5721217372535 1.5209448392621 0.73262983509927 1.8477506602068 1.4639263421725 1.4343289852877 0.94882602837804 1.5631218247683 1.8341603918678 -0.34430347879298 1.5995267910731 1.5086455128494 0.55082168900145 1.4216019963212 1.3681832355315 1.045514597659 0.21007216813317 0.17583084099102 1.6006843201622 0.31955950062913 1.6954067310814 1.3692366260928 1.7545819342192 0.91570408287804 1.7408906095415 1.4545124099791 1.7452690027551 1.746482847379 1.4093053535522 1.1960162139775 1.4272660376033 1.5656672222946 1.2893882142051 1.7731022407891 1.8464041263959 1.5495761841219 1.1434926660232 1.2788223812823 1.1950926756647 1.23531084955 0.95256056674566 0.69636294827712 1.459636347867 1.535373541917 1.8304377893089 1.493262134104 1.8925888746509 1.4446391461716 1.6949240980736 1.4817710315586 1.9024681122388 1.2870676537253 1.011092325105 1.5793976241424 1.9722541334327 1.5377075463115 0.87821067650608 1.3483829900173 -0.22606377848651 1.8442363650002 0.50127806251465 1.8183960703002 1.4838044649118 0.26220518593503 1.5973244322131 1.313780951876 1.0680646742877 1.4816763683911 1.706542733625 1.8624379825217 1.4136093202603 1.4658025095354 1.8070781526996 1.630814429887 1.3865157347711 0.71469142894943 1.5900944169081 1.5975674058678 1.528039381375 0.66379939495621 0.57488684099165 1.4045731095286 1.2382370488838 1.5090358751073 0.84336485328993 1.8334184945933 1.6108552102384 0.82152240798339 1.9499797165443 1.4147311830307 1.0639771627255 0.62965429170541 0.8452464108406 0.99902719434176 0.56000171232893 1.69466010798 1.6234893533384 0.015764027905812 1.3733228470596 1.1651312970535 1.4553258287995 1.3426417005669 1.5548552713351 1.5334782277617 1.8218686135315 1.0473568215093 1.614226869117 0.77984233985864 1.0761302830071 1.3856972607761 1.6239251965516 1.0960679666183 1.7934495285623 1.6278159280903 1.3194916233256 1.6133105920305 1.4386307533837 1.6705310661413 1.5694618907457 1.6329686379585 1.6078152807505 0.4179437710287 1.3242091176934 1.4401194132438 1.8417203430692 0.77030812493725 1.8016021526599 0.96436031930501 0.91094743834345 1.3426324822758 1.7835548729427 0.89692438888376 -0.66170532794028 1.7100850234428 1.5602409386445 1.2658163089842 1.6964920089596 1.4815946506535 0.66264004393088 0.83704233006468 1.8675189901782 0.94772917508794 1.5822270217125 0.83501644523319 0.70468453559074 1.368134911078 0.56722917080103 1.561992157352 1.6300466416995 1.5264224236405 0.11958071167359 1.1334850779351 1.7040976794872 1.2114758315329 1.5538819610174 1.4313084976809 1.4078825534869 1.4381885578237 1.0756789149023 1.5957651145131 1.5856465225866 1.0235331955193 1.0743022305554 0.28150020642922 1.9716531682489 0.95125089475504 0.34512204837778 1.7321083451367 1.3045866913746 1.5948994369049 1.7086284739073 1.6842761057893 0.65093309316842 0.85504296118453 1.6902285048029 1.3887032479527 1.6441878081694 1.1305086712336 1.5140390232379 0.86127489631781 1.0513140005512 0.88490520882896 1.5122212975768 1.2168956617107 0.6941043626177 1.8969739534987 1.6659343219214 -0.5511460614658 0.13375695439259 0.89883648408908 1.6899731570224 1.8855205002949 1.5654360291452 1.8495197802114 1.1970980263431 1.4674567215468 0.62393582555668 1.6799205632663 0.3986474709272 1.9769513957502 1.1269557786356 1.6137407536748 0.89680495397228 1.62181172712 1.4793611745334 1.3487434147308 1.4307419949544 0.41408315373729 1.8363135670574 1.1400811257661 1.4811226912117 0.47113653300394 1.4878736402045 1.5940953653864 0.9629729159281 1.3753299640088 0.90276093584488 1.6886038828688 1.113329995394 1.4681242720301 1.360126789309 1.2722740471394 1.864711124753 0.74611868310834 0.43208530946147 -0.50407000711374 1.789203814727 1.1460695933429 1.0455300528963 0.76213178659058 1.825699931533 -0.1946119876909 1.6195107521525 1.6015939360041 1.1158397636745 1.0355793448493 1.7208655164501 1.889825416202 1.4783201606413 1.5395293509711 1.7952337680208 1.6617362750529 1.8636570282247 0.7260112224765 1.5904911544512 1.8462996544472 2.0316069810728 0.74201872280839 1.4406146063021 1.40415668358 1.467848164986 1.6028413764652 1.6160087704347 0.63898448076812 1.7039997785989 0.73399693966791 1.1435000980835 1.4671845490368 1.9348951460707 1.1824915046021 1.40889631265 0.13503171576666 1.6757920806766 1.6631208323335 1.1665720651509 0.2782277651984 1.3921870243796 0.73259983219112 1.6555999565859 1.2216723172638 1.47736047817 -0.32188655909592 1.490056221322 0.68989277232587 0.77920588880398 1.848668534778 1.2688508686247 1.3656202267784 1.5271490863311 0.48101569458202 1.8680700148123 1.7916909335849 1.5230889851936 1.8318336751677 0.66470444634632 1.6593462318109 1.6880068596799 1.5327567645183 1.0336329037469 1.7903522678592 0.50982916360868 1.2729763222153 1.3910867947814 1.1948095932598 0.8064711799242 1.7729876876917 1.5511949698739 1.3677366687455 1.387254828989 0.7214366009404 1.3835872325373 -0.4140685654516 1.5976088623177 1.0085859069175 -0.25225632075825 0.26326313848872 1.5035596613713 1.7682031454064 1.3355779269446 1.3816009627683 1.9083855084473 1.5420710778145 1.0926227679412 1.617228762399 0.93300889061032 1.2147150764656 1.4984704816176 0.97242459998411 0.36142956504036 1.6900088794279 1.4435599978196 1.8543369299244 0.78087008838837 1.6863127874927 1.5366808729314 1.4695135999056 1.5673615010272 1.5604139372598 0.22851414727541 1.0288579033154 1.414386367246 1.0508572549957 1.2322959481155 1.1425557362657 1.7477365151037 1.0804763080236 1.2593261807675 1.4598925994039 1.8183424839609 1.7544602261746 1.7464789237457 0.65250095602339 1.8714234775544 1.4708674529278 0.77592277517303 1.1843103407614 1.499626419238 1.6388722269646 1.1266873988783 0.84204797569465 1.4458442352742 1.6230102829861 1.9325625072005 1.4298043499185 1.3048074299456 0.81893550975398 1.4141891124101 1.5864115937401 1.5892662717741 1.7965545308347 1.4407726933172 1.6128203094913 1.1398437192426 1.542815052971 1.6058867014788 0.82796343884067 1.9147697381766 1.3996492804569 0.58582340987618 1.5960265450242 0.9125491954593 1.538225099957 1.2384870353872 1.7307772778067 1.1990242676786 1.2206533523149 1.5571969777065 1.1612409070803 1.6726815048801 1.8551845278055 1.3095051246355 1.6546246914843 1.4122485952183 0.48330308227292 1.143984879566 1.7933294186827 1.7461729905947 0.25660033271786 1.5985245208388 -0.54853146334941 1.4037068360214 1.7362039762377 1.3005476430715 0.65467862649452 1.765568725572 -0.67467811275955 1.7754045439387 1.3252588600883 1.4330432206728 0.74329321288907 1.1770672038219 1.388379267771 1.0652412755745 1.4833353228244 1.0769096904981 1.7831397349915 0.77477928163684 1.4289630068113 1.501980132578 1.2501280847009 1.3528189069184 1.5945863859587 1.5882788145881 1.4594610738086 1.1150846780632 0.62165989577992 0.75361769917932 0.67013537781715 1.509099264366 1.5768831192769 1.5900994869938 1.0614518402064 1.6689475914391 1.622645664322 1.1638063896951 1.5876238236461 1.425575731817 1.6121235807559 0.52497011027972 0.9709601990585 1.6065465937752 1.2663105169028 0.95067036076 1.3421885905391 1.3613856214348 1.0568128813149 1.2717769970469 1.544654109115 1.5233638543752 1.2112964276549 1.8544217108629 1.8096275813418 1.0915490792412 1.5479765036208 0.72559130854257 1.3373463277754 0.6622727179598 1.6306000889296 -0.19595255155252 0.74164571541341 1.527324788586 -0.25163648628746 1.6956250302582 0.71392680114391 1.2882320364072 1.3303376912462 1.438725297079 0.81514189013665 1.4097754221692 0.4916897134546 1.2496382220813 1.5640650499071 1.2614271236726 1.5700360740721 1.5357458996525 0.98492640229902 0.83532684716328 0.52730729293148 0.77988600909706 0.63030678802696 1.8729311824645 0.45313604881353 0.92298022588689 1.5299298023262 1.2717214203088 1.6046728871013 1.7609616809876 1.6430535931299 1.634719315193 1.2500363703719 1.4025403132678 1.5187844492576 1.5386221981948 1.6924257076075 0.56173440385131 1.5853299172156 1.5964348655411 1.1747402355731 1.1695668758317 1.6621744560167 1.9462912688325 1.5816232410875 1.7305863842964 0.66903735729212 1.2346731598331 1.8015415843403 1.5996644790483 1.3115050929571 1.7341656592458 1.0420977175114 1.3763315372441 0.44992966498066 1.7005633219151 1.290501327893 0.70323278440229 1.4317872428496 1.5352885788077 1.42410913751 -0.1439640391387 1.2782888962622 1.5819600905541 1.9010232803567 0.33967792140866 1.7776913795816 0.85577053996938 0.22083543689224 1.1918879006461 -0.43834953166406 1.7265793709581 1.9404367105301 1.4373366267983 1.0094604934824 1.4781701414216 1.7991055284917 0.42804283841196 1.5827950083826 1.4898892885326 0.2222390640685 1.4798194827973 1.3517463378972 1.6420709730072 0.95417887313512 0.53138066621192 1.4287396287065 0.6422509518741 1.2643114153929 1.8852801708519 1.3569210359587 1.4874163709223 1.3597706795406 1.6382529214749 0.35754573355429 0.40813001650885 0.9814500474127 2.0259740677363 1.1419065148074 0.62064723028382 1.5179755900659 1.5810737958073 1.0599016917061 1.3528972316434 1.2415301103832 1.3816793170864 1.5981033858532 1.4709080830806 0.75518028327321 1.2803385413432 1.3381299116259 1.6379892820708 1.9050346220758 0.61148519670112 0.98888426805191 0.49971574387083 1.5165328934089 1.3150945997124 0.81693255870349 0.98827717110481 1.6911283607856 0.51624823878153 1.1924236085973 1.0678562477838 1.2829137027338 1.7541755201703 1.23712922341 1.1498424267077 1.7918650248874 1.8819730731552 1.5570182263096 1.7307091332616 1.6353597029084 1.248171295188 0.78554537746368 0.76026207029847 1.4625044773998 1.0748320973109 1.1842829861609 1.4957957162724 0.76562619751679 1.665265015993 -0.13578904943821 1.7962030995946 1.6084430785473 1.3543164225571 0.56580922018028 0.68835306228631 1.7798281571511 -0.021865345115663 1.1579986715065 1.3597951500396 0.6049647430886 1.1522186831814 1.9142192969516 1.7879932221356 1.5321810801961 0.67909091830271 1.7333671728185 1.6745619908484 0.36216458976835 0.93227057922006 1.6502368170726 1.0154830282187 1.5408745475484 1.5321158790646 0.93641343199739 1.3707761129906 1.2494186627125 0.76513747499833 0.6420601759858 0.6380301258913 1.7426070924978 1.8580833745705 2.4691883694152 1.5773807751209 0.91425985114334 1.6111510518935 1.4607066598116 0.96133697407251 1.4869619837603 1.7116001880259 0.52289860917351 1.7373017592286 0.89217759595886 1.7500604464391 1.5468723791499 0.75354150180229 1.2007365035442 1.5153500483472 1.4012364079435 1.239260203224 0.90653643115137 1.6541958521847 1.8195417859653 0.84998526784578 1.7107311914356 1.7576354505117 0.50368261298725 1.9670472579387 1.4186869562409 1.1868172841882 1.1237302066363 1.1077183657513 1.5963801144627 1.4677185608429 1.7154390934639 0.93734616803765 1.7704232708802 1.3764465400303 1.4326558991114 1.3289192105984 1.0468880627422 0.66545682678937 1.9012209385259 1.8564098770451 1.4301038076925 1.9263023548871 1.0672108469176 1.0337011430719 1.5151904750066 1.5020798236359 1.3236912613034 1.3566635439296 1.5065976640773 1.0447689996179 1.8354118823136 1.8572729385388 1.402874591086 1.0544217999147 0.79984802782714 1.4088982490797 1.2575008757179 0.31768005744171 1.5602482432698 1.7193379337747 1.2806890323092 1.8289581093415 1.3421852963705 1.0879140733993 1.8822141218729 1.5510850063573 0.73798314150529 0.73174436536871 1.2952311846307 1.803137361755 1.1848141243042 1.0720248707935 1.6095918924839 1.3145054727812 1.7157653778811 1.6094810621357 1.2248371659135 1.3677194692886 1.7920796310763 0.89970462091327 1.5769848299085 1.651526829551 1.8798493596273 1.4867947330665 1.252846511858 1.7832841928686 1.758522669785 1.80447366391 1.5158530522861 1.4595000916003 1.4965152710926 1.6002993794461 1.4870129458772 0.94017912439128 0.059043678409164 0.88560352872434 0.79698128173067 0.77648197365889 1.5617774237813 1.3019317415326 1.7348784756026 1.2219557458749 1.5313244654632 1.2823101109081 0.60911533578431 1.7614399031051 1.5500952997643 1.642387225845 -0.35751439334717 1.8525413707208 1.6175913163532 1.0455921762443 1.8695555753588 1.1889078195924 1.2034654132821 1.9171082034189 1.3030504359739 0.62342508415885 1.4515388250997 1.2007993750521 1.103190869322 1.7983906977393 0.95296930582712 1.6639398524219 1.3304001169655 1.332746119862 1.0369727376184 1.7738887001739 0.25232091980824 0.6918778215259 -0.4977242849336 1.3933530532273 1.4493471059056 0.79593762230518 1.0426060345839 1.5727198667075 1.7757962416984 1.4219239878505 1.6200063768332 0.88763783023518 0.91462094737669 1.8542165814419 1.7419208665185 1.4982957556604 1.6003693390135 1.4799180026785 1.4224452094699 0.59773806219163 1.3859164184554 1.6787254865376 -0.14059056006479 1.3374904436206 1.8908051000143 1.4344046006265 1.4258731092066 1.2521057617426 0.8927564363213 0.46851256325637 1.5337476901648 0.8144313619035 1.363932224379 1.4132313909386 1.5582692343507 1.6328412814008 1.773018488508 1.7927041296296 0.34099884705622 1.4764863542221 1.1178682671219 0.43307365793972 1.8218622122568 -0.45958304679242 0.5793635659908 1.2902986263018 1.6653324529918 1.0053129853107 1.4967753970699 0.57223345236975 1.4267103447273 1.0374756376662 1.2938225856103 0.97238260572769 1.037523151457 1.9073270112097 1.4814743659528 0.73042544677431 -0.053175526174498 1.0686700814475 1.3332670723528 1.5578259812037 1.4585188411102 0.9695236357057 1.8483067518203 1.3478894658646 1.5023454088832 1.4497445966506 0.76891673041862 1.575731077923 1.5396309905539 1.9666444202759 1.438