# vtk DataFile Version 3.0
d-2__ created by libgimli-v1.5.0-1-g5991b6ac
ASCII
DATASET UNSTRUCTURED_GRID
POINTS 257 double
19.5	-0.25	0
19.643267391024	-0.375	0
19.690940791558	-0.19094079155751	0
22.625	-0.27380702240065	0
22.625	-0.13804348840204	0
22.518663902413	-0.18940103023301	0
22.458333333333	-0.087886572211468	0
22.416666666667	0	0
22.375	-0.13804348840204	0
22.291666666667	-0.087886572211468	0
22.333333333333	0	0
22.25	0	0
20.083333333333	0	0
20.041666666667	-0.13804348840203	0
20.125	-0.087886572211466	0
20.166666666667	0	0
20	0	0
20.708333333333	-0.13804348840203	0
20.666666666667	0	0
20.625	-0.087886572211466	0
20.208333333333	-0.07357428207177	0
20.75	0	0
20.791666666667	-0.087886572211464	0
20.333333333333	0	0
20.25	0	0
20.291666666667	-0.087886572211468	0
21.166666666667	0	0
21.208333333333	-0.07357428207177	0
21.25	0	0
20.416666666667	0	0
20.375	-0.13804348840204	0
20.458333333333	-0.087886572211468	0
21.291666666667	-0.087886572211468	0
21.333333333333	0	0
21.625	-0.13804348840204	0
21.518663902413	-0.18940103023301	0
21.625	-0.27380702240065	0
20.583333333333	0	0
22.916666666667	0	0
22.833333333333	0	0
22.875	-0.13804348840204	0
20.833333333333	0	0
20.875	-0.07357428207177	0
23.98747163413	-0.5056358037932	0
24.050519698408	-0.25547676721966	0
23.843533331918	-0.29816134131379	0
23.458333333333	-0.087886572211464	0
23.404607252882	-0.15094638411797	0
23.541666666667	-0.13804348840203	0
20.5	0	0
21.791666666667	-0.087886572211468	0
21.833333333333	0	0
21.75	0	0
21.231336097587	-0.18940103023302	0
21.125	-0.13804348840204	0
19.705488373266	-0.59091608366499	0
20.007921013115	-0.8717186506847	0
19.91135296792	-0.47048281487414	0
24.166666666667	0	0
24.208333333333	-0.087886572211464	0
24.25	0	0
21	0	0
20.916666666667	0	0
20.958333333333	-0.13804348840203	0
24.791666666667	-0.087886572211468	0
24.833333333333	0	0
24.75	0	0
21.041666666667	-0.087886572211464	0
21.083333333333	0	0
24.083333333333	0	0
24.125	-0.07357428207177	0
22.541666666667	-0.073574282071767	0
21.375	-0.13804348840204	0
21.416666666667	0	0
21.5	0	0
21.458333333333	-0.087886572211468	0
22.583333333333	0	0
22.666666666667	0	0
22.226291378505	-0.21877391554365	0
22.432011579996	-0.40775209656411	0
24.148002764253	-0.18940103023303	0
24.208717134119	-0.38392172835888	0
24.291666666667	-0.13804348840203	0
22.208333333333	-0.07357428207177	0
22.166666666667	0	0
22.125	-0.072182208352023	0
21.875	-0.13804348840204	0
20.237940586216	-0.15094638411797	0
21.916666666667	0	0
21.708333333333	-0.07357428207177	0
22.083333333333	0	0
22	0	0
22.041666666667	-0.13804348840203	0
20.190375288162	-0.21877391554366	0
21.958333333333	-0.087886572211464	0
20.541666666667	-0.073574282071767	0
20.571273919549	-0.15094638411796	0
20.317063962986	-0.25702488420529	0
21.541666666667	-0.073574282071767	0
22.5	0	0
23.583333333333	0	0
23.625	-0.087886572211466	0
22.791666666667	-0.087886572211468	0
20.203594889612	-0.40391444725954	0
21.583333333333	0	0
21.666666666667	0	0
22.75	0	0
22.958333333333	-0.087886572211464	0
23	0	0
23.041666666667	-0.13804348840203	0
22.708333333333	-0.07357428207177	0
23.083333333333	0	0
23.125	-0.087886572211466	0
23.166666666667	0	0
23.208333333333	-0.13804348840203	0
23.25	0	0
22.165334880767	-0.15260258505374	0
23.291666666667	-0.087886572211464	0
21.731336097587	-0.18940103023302	0
23.5	0	0
23.416666666667	0	0
23.333333333333	0	0
23.375	-0.07357428207177	0
23.666666666667	0	0
22.086941669094	-0.2859797646022	0
21.958333333333	-0.18219221742147	0
23.125	-0.18219221742148	0
23.228873378537	-0.27753669533404	0
23.708333333333	-0.07357428207177	0
23.041666666667	-0.23876614697008	0
22.958333333333	-0.18219221742147	0
23.833333333333	0	0
23.875	-0.13804348840204	0
23.916666666667	0	0
23.791666666667	-0.087886572211468	0
23.75	0	0
23.958333333333	-0.087886572211464	0
24	0	0
23.483730629652	-0.25702488420531	0
24.333333333333	0	0
24.375	-0.087886572211466	0
23.369620976373	-0.40603607246707	0
23.604159114629	-0.34842263547806	0
25.124752694808	-0.11296503030675	0
25	0	0
24.958333333333	-0.087886572211468	0
24.041666666667	-0.13804348840203	0
24.416666666667	0	0
24.458333333333	-0.07357428207177	0
24.875	-0.13804348840204	0
24.583333333333	0	0
24.541666666667	-0.13804348840203	0
24.625	-0.087886572211466	0
24.5	0	0
24.43533056908	-0.18940103023302	0
24.916666666667	0	0
24.385963434616	-0.36114994877356	0
24.708333333333	-0.07357428207177	0
24.666666666667	0	0
23.636111778917	-0.20065391017952	0
24.999752694808	-0.25100851870879	0
22.731336097587	-0.18940103023302	0
20.851997235747	-0.18940103023303	0
24.737940586216	-0.15094638411797	0
20.523708621495	-0.21877391554365	0
21.133853031742	-0.25547676721968	0
20.949480301592	-0.25547676721966	0
21.041666666667	-0.52911283384145	0
21.041666666667	-0.18219221742147	0
23.357041954828	-0.21877391554366	0
23.737940586216	-0.15094638411797	0
24.690375288162	-0.21877391554366	0
23.958333333333	-0.18219221742147	0
19.875	-0.11303967622539	0
19.75	0	0
20.650397296319	-0.25702488420526	0
21.292050467453	-0.38392172835888	0
21.414390113348	-0.63321254312708	0
21.469144028345	-0.36097200963104	0
21.848127708251	-0.28948918465343	0
22.848127708251	-0.28948918465343	0
22.726596951268	-0.4234584073117	0
23.731548923005	-0.26700761442393	0
24.817063962986	-0.25702488420529	0
20.031958747178	-0.33325463579056	0
20.523689393121	-0.44776195923934	0
23.184065504659	-0.43422319923747	0
23.545209981036	-0.61464357222601	0
24.552290248164	-0.29580321144285	0
25.25	0	0
20.800529041383	-0.37028063139366	0
23.130694908432	-0.28024272799092	0
22.907115884997	-0.43487734236883	0
25.5	-0.5	0
25.5	-0.25	0
25.356886217184	-0.375	0
25.308843572405	-0.19115642759521	0
25.5	0	0
21.681768476189	-0.55823447719905	0
23.041897355025	-0.3545575021244	0
22.950100433703	-0.28398118611486	0
23.746371622197	-0.43057135368151	0
23.045779100149	-0.5143168838031	0
21.615347366628	-0.83560735755964	0
21.971649595913	-0.56775148091581	0
22.235269600634	-0.41546210057925	0
22.346412380513	-0.73751448832674	0
22.007726950717	-0.98664640296265	0
20.322202955504	-0.72835150504623	0
23.798122080496	-0.68908130839227	0
24.703430397599	-0.40445925111313	0
24.914859484231	-0.44990795630246	0
23.247599241801	-0.70334449364573	0
25.053928463665	-0.58159990549132	0
25.221377875989	-0.67457110982012	0
25.225195424337	-0.49586438948828	0
24.530720924191	-0.4852517756918	0
24.323984230706	-0.57992151527177	0
19.84485407481	-1.2957460393421	0
19.743909551686	-0.8528010586154	0
24.746070739038	-0.72060716412098	0
23.604860290622	-0.8788438191921	0
23.043947453281	-1.1807973577914	0
23.54268225478	-1.3246684327942	0
23.849430697053	-0.99522786547226	0
24.043693421774	-0.75311160759413	0
22.849047319116	-0.69970565535729	0
25.000856094841	-0.87446921301307	0
25.5	-1	0
19.845623228308	-0.30002188546398	0
24.512369350266	-0.71824350459	0
24	-1.6666666666667	0
24.051778272566	-1.3024535658708	0
19.5	0	0
21.680522574649	-1.2514855461386	0
21.375	-1.6666666666667	0
21.75	-1.6666666666667	0
25.174325422113	-0.32450830281231	0
19.5	-0.5	0
20.747329141204	-0.71351083399284	0
19.5	-0.75	0
20.348572023727	-1.2023161679924	0
21.179597305363	-1.0673000334922	0
23.25	-1.6666666666667	0
19.5	-1	0
24.75	-1.6666666666667	0
25.013091550828	-1.3141602648437	0
24.625304590967	-1.106556793762	0
24.375	-1.6666666666667	0
24.189043391347	-0.96114657873573	0
22.064690440023	-1.391571216678	0
22.426745644615	-1.201505510398	0
19.5	-1.6666666666667	0
21	-1.6666666666667	0
20.25	-1.6666666666667	0
22.5	-1.6666666666667	0
25.5	-1.6666666666667	0
CELLS 429 1716
3	0	1	2	
3	3	4	5	
3	6	7	8	
3	9	10	11	
3	12	13	14	
3	14	15	12	
3	16	13	12	
3	17	18	19	
3	20	15	14	
3	7	10	8	
3	21	17	22	
3	23	24	25	
3	26	27	28	
3	29	30	31	
3	23	30	29	
3	28	32	33	
3	34	35	36	
3	19	18	37	
3	38	39	40	
3	22	41	21	
3	41	22	42	
3	43	44	45	
3	18	17	21	
3	46	47	48	
3	31	49	29	
3	50	51	52	
3	53	27	54	
3	55	56	57	
3	58	59	60	
3	61	62	63	
3	64	65	66	
3	67	68	61	
3	67	61	63	
3	69	70	58	
3	4	71	5	
3	72	73	33	
3	5	6	8	
3	74	73	75	
3	73	72	75	
3	76	4	77	
3	78	79	8	
3	80	81	82	
3	83	84	85	
3	50	86	51	
3	25	87	30	
3	86	88	51	
3	52	89	50	
3	90	91	92	
3	93	87	14	
3	94	92	91	
3	95	49	31	
3	9	8	10	
3	84	83	11	
3	19	95	96	
3	91	88	94	
3	25	30	23	
3	9	11	83	
3	97	30	87	
3	98	74	75	
3	99	71	76	
3	100	48	101	
3	33	32	72	
3	99	7	6	
3	41	42	62	
3	102	40	39	
3	71	99	6	
3	97	93	103	
3	104	34	105	
3	39	106	102	
3	74	98	104	
3	38	107	108	
3	107	109	108	
3	35	75	72	
3	106	110	102	
3	34	98	35	
3	28	27	32	
3	111	112	113	
3	109	111	108	
3	59	82	60	
3	113	114	115	
3	116	9	83	
3	114	117	115	
3	50	89	118	
3	119	120	46	
3	119	48	100	
3	110	106	77	
3	120	121	122	
3	89	52	105	
3	101	123	100	
3	124	92	125	
3	54	26	68	
3	114	126	127	
3	101	128	123	
3	129	109	130	
3	131	132	133	
3	134	131	135	
3	48	119	46	
3	115	117	121	
3	136	137	133	
3	47	138	48	
3	60	82	139	
3	82	140	139	
3	141	142	138	
3	143	144	145	
3	122	47	46	
3	146	137	136	
3	113	112	114	
3	134	132	131	
3	147	140	148	
3	149	65	64	
3	150	151	152	
3	150	153	151	
3	148	154	151	
3	147	148	153	
3	65	149	155	
3	59	58	70	
3	155	145	144	
3	82	81	156	
3	145	155	149	
3	146	69	137	
3	157	158	152	
3	154	140	82	
3	147	139	140	
3	101	48	159	
3	149	160	145	
3	102	110	161	
3	150	152	158	
3	42	22	162	
3	157	163	64	
3	5	71	6	
3	4	76	71	
3	85	84	90	
3	116	83	85	
3	96	31	164	
3	49	95	37	
3	15	20	24	
3	25	20	87	
3	14	13	93	
3	25	24	20	
3	165	166	167	
3	63	168	67	
3	54	68	67	
3	17	162	22	
3	63	62	42	
3	35	98	75	
3	34	104	98	
3	26	54	27	
3	63	42	162	
3	88	86	94	
3	125	94	86	
3	105	34	89	
3	118	89	34	
3	77	4	110	
3	161	110	4	
3	111	109	112	
3	126	112	109	
3	47	117	169	
3	120	122	46	
3	38	40	107	
3	130	107	40	
3	121	117	122	
3	117	114	169	
3	80	70	146	
3	123	128	135	
3	134	128	170	
3	159	48	138	
3	134	135	128	
3	163	152	171	
3	158	157	66	
3	154	148	140	
3	151	153	148	
3	69	146	70	
3	172	44	146	
3	9	78	8	
3	161	40	102	
3	90	92	85	
3	116	78	9	
3	92	94	125	
3	5	79	3	
3	164	31	30	
3	19	37	95	
3	173	16	174	
3	164	175	96	
3	17	19	96	
3	53	165	176	
3	53	32	27	
3	118	86	50	
3	175	17	96	
3	176	177	178	
3	118	36	179	
3	78	116	124	
3	180	3	181	
3	169	114	127	
3	114	112	126	
3	134	170	132	
3	133	132	136	
3	44	80	146	
3	146	136	172	
3	82	59	80	
3	152	151	171	
3	64	66	157	
3	80	59	70	
3	64	163	149	
3	170	101	159	
3	136	132	172	
3	85	92	116	
3	124	116	92	
3	97	164	30	
3	166	168	63	
3	14	87	20	
3	87	93	97	
3	117	47	122	
3	47	169	138	
3	101	170	128	
3	142	182	159	
3	132	45	172	
3	149	163	183	
3	31	96	95	
3	162	166	63	
3	184	93	13	
3	97	185	164	
3	156	154	82	
3	141	127	186	
3	142	141	187	
3	44	172	45	
3	152	163	157	
3	163	171	183	
3	103	93	184	
3	53	72	32	
3	154	188	151	
3	189	144	143	
3	185	175	164	
3	175	190	162	
3	118	179	86	
3	125	179	124	
3	109	107	130	
3	126	129	191	
3	161	180	40	
3	127	126	191	
3	169	141	138	
3	141	169	127	
3	125	86	179	
3	180	181	192	
3	193	194	195	
3	196	194	197	
3	149	183	160	
3	143	145	160	
3	167	176	165	
3	162	17	175	
3	198	178	177	
3	72	53	176	
3	118	34	36	
3	185	97	103	
3	126	109	129	
3	186	191	199	
3	180	130	40	
3	130	180	200	
3	161	4	3	
3	129	199	191	
3	138	142	159	
3	45	182	201	
3	130	200	129	
3	192	202	199	
3	202	186	199	
3	129	200	199	
3	142	187	201	
3	191	186	127	
3	180	192	200	
3	199	200	192	
3	180	161	3	
3	142	201	182	
3	54	67	168	
3	203	204	198	
3	79	5	8	
3	78	124	205	
3	182	170	159	
3	151	188	171	
3	185	190	175	
3	204	206	205	
3	201	43	45	
3	43	81	44	
3	207	206	204	
3	57	56	208	
3	44	81	80	
3	209	201	187	
3	35	72	178	
3	57	208	103	
3	13	16	173	
3	183	210	211	
3	141	212	187	
3	45	170	182	
3	213	214	215	
3	205	79	78	
3	216	156	217	
3	45	132	170	
3	196	197	189	
3	218	56	219	
3	178	198	36	
3	188	156	216	
3	220	211	210	
3	57	103	184	
3	204	179	198	
3	165	53	54	
3	221	222	223	
3	209	224	225	
3	43	217	81	
3	226	212	202	
3	214	227	228	
3	211	160	183	
3	210	171	188	
3	226	192	181	
3	193	215	214	
3	3	79	181	
3	205	206	79	
3	186	212	141	
3	212	186	202	
3	173	229	13	
3	167	177	176	
3	72	176	178	
3	206	226	181	
3	213	227	214	
3	217	230	216	
3	196	195	194	
3	231	232	223	
3	227	213	220	
3	206	181	79	
3	187	212	221	
3	173	174	2	
3	13	229	184	
3	174	233	2	
3	234	235	236	
3	196	189	143	
3	233	0	2	
3	160	237	143	
3	237	195	196	
3	1	0	238	
3	173	2	229	
3	177	203	198	
3	198	179	36	
3	239	190	185	
3	35	178	36	
3	192	226	202	
3	195	215	193	
3	188	216	210	
3	220	210	216	
3	213	237	211	
3	154	156	188	
3	124	179	204	
3	221	212	222	
3	240	219	55	
3	54	168	165	
3	196	143	237	
3	195	237	215	
3	55	1	238	
3	167	166	190	
3	2	1	229	
3	1	55	57	
3	190	166	162	
3	204	205	124	
3	241	208	56	
3	242	167	239	
3	223	222	243	
3	156	81	217	
3	160	211	237	
3	213	215	237	
3	183	171	210	
3	228	193	214	
3	219	244	218	
3	56	55	219	
3	184	229	57	
3	57	229	1	
3	220	213	211	
3	245	246	247	
3	230	220	216	
3	220	247	227	
3	248	247	232	
3	228	227	246	
3	55	238	240	
3	249	230	217	
3	247	249	232	
3	166	165	168	
3	221	209	187	
3	43	225	217	
3	209	43	201	
3	247	246	227	
3	190	239	167	
3	207	204	203	
3	208	185	103	
3	242	203	177	
3	207	250	251	
3	240	244	219	
3	252	218	244	
3	224	209	221	
3	217	225	249	
3	43	209	225	
3	241	242	239	
3	167	242	177	
3	253	242	241	
3	56	218	241	
3	212	226	222	
3	249	225	224	
3	234	250	207	
3	239	185	208	
3	231	223	243	
3	224	232	249	
3	252	254	218	
3	241	218	254	
3	253	241	254	
3	239	208	241	
3	206	207	251	
3	224	221	223	
3	223	232	224	
3	248	245	247	
3	234	207	203	
3	250	255	251	
3	251	226	206	
3	255	243	222	
3	249	247	230	
3	220	230	247	
3	203	242	234	
3	235	242	253	
3	255	222	251	
3	226	251	222	
3	232	231	248	
3	245	256	246	
3	228	246	256	
3	242	235	234	
3	234	236	250	
3	255	250	236	
CELL_TYPES 429
5 5 5 5 5 5 5 5 5 5 5 5 5 5 5 5 5 5 5 5 5 5 5 5 5 5 5 5 5 5 5 5 5 5 5 5 5 5 5 5 5 5 5 5 5 5 5 5 5 5 5 5 5 5 5 5 5 5 5 5 5 5 5 5 5 5 5 5 5 5 5 5 5 5 5 5 5 5 5 5 5 5 5 5 5 5 5 5 5 5 5 5 5 5 5 5 5 5 5 5 5 5 5 5 5 5 5 5 5 5 5 5 5 5 5 5 5 5 5 5 5 5 5 5 5 5 5 5 5 5 5 5 5 5 5 5 5 5 5 5 5 5 5 5 5 5 5 5 5 5 5 5 5 5 5 5 5 5 5 5 5 5 5 5 5 5 5 5 5 5 5 5 5 5 5 5 5 5 5 5 5 5 5 5 5 5 5 5 5 5 5 5 5 5 5 5 5 5 5 5 5 5 5 5 5 5 5 5 5 5 5 5 5 5 5 5 5 5 5 5 5 5 5 5 5 5 5 5 5 5 5 5 5 5 5 5 5 5 5 5 5 5 5 5 5 5 5 5 5 5 5 5 5 5 5 5 5 5 5 5 5 5 5 5 5 5 5 5 5 5 5 5 5 5 5 5 5 5 5 5 5 5 5 5 5 5 5 5 5 5 5 5 5 5 5 5 5 5 5 5 5 5 5 5 5 5 5 5 5 5 5 5 5 5 5 5 5 5 5 5 5 5 5 5 5 5 5 5 5 5 5 5 5 5 5 5 5 5 5 5 5 5 5 5 5 5 5 5 5 5 5 5 5 5 5 5 5 5 5 5 5 5 5 5 5 5 5 5 5 5 5 5 5 5 5 5 5 5 5 5 5 5 5 5 5 5 5 5 5 5 5 5 5 5 5 5 5 5 5 5 5 5 5 5 5 5 5 5 5 5 5 5 5 5 5 5 5 5 5 5 5 5 5 5 5 5 5 5 5 
CELL_DATA 429
SCALARS Coverage double 1
LOOKUP_TABLE default
1.5547108014207 2.5945606506051 2.9997340606346 3.2831561966444 2.3572367238664 2.6406667616386 2.755222186936 2.7547067795245 2.5650717861304 3.1613814637629 2.8642623278228 2.9484200440909 3.1538732394764 2.608825785429 2.7264244095171 3.1206816819736 2.5578618734694 2.8393771977441 3.1655970489068 3.3753330666549 3.0245158757415 2.1682550931476 3.3386361748605 2.7907323803775 2.9546039337359 3.5227901967072 2.5825598852697 1.2698398890191 3.2948571020177 3.1963148282584 2.9140946576453 3.385042651856 3.1120604034008 3.1572582383442 2.7726092861447 3.0988901310154 2.7694592717229 3.3378396460626 3.0032249385453 3.1381648827625 2.4910596876875 2.4705360934967 2.9640332844041 3.0799604357153 2.3234655403084 3.120186886625 3.0692184699864 3.484273639523 2.2734066298293 2.9522340952857 2.5750943185986 2.9833908150028 3.226952149125 2.474107742673 3.3564680302521 2.5460152610774 2.7992627669924 2.2432517423899 2.9506245512421 3.3559926726001 3.0467182232369 2.8311702507036 3.3527400585577 3.1062562336845 2.9659103993548 2.8628516785929 1.9413511332996 3.0941020604696 3.3463253814229 3.3385335579227 3.398409462023 3.0460364129292 2.9000969454392 2.897560704213 2.7166952747319 2.6790408388139 3.1584616403445 3.2573674735868 2.9002119426961 3.4954315664163 2.7178162165361 2.9792916800909 2.9262183470016 3.4109911476384 3.3620056232095 3.4055011899672 3.2290681139625 3.5408358020172 3.2173604891054 2.6886050577632 2.9757953943745 2.6191950261271 3.152249798118 2.6425669005249 3.1078444816643 3.399144765435 2.9403353142384 3.4901548325221 3.4290924834316 2.6132167059192 3.4170318720249 2.9623119072185 2.2710098630955 2.5794866178508 2.9172687344681 2.9845174047187 3.0325772209317 3.0042392379121 2.8426768402828 2.4927376061802 2.8062169909374 3.1647146401437 2.5852122760196 3.1103000407998 2.5945455380461 3.0200218061941 3.0282072831111 2.3017447701676 2.3854584605202 3.4047260115608 2.7941905713538 2.7744908166301 2.9766689463762 2.7931493376177 2.3297219311241 2.7869450123728 2.8930103222536 2.7313731970756 2.5380094722353 2.7668834606606 2.9836651882688 3.014025956348 2.8436159330198 2.3177122310634 2.9194009000239 2.9517308995491 2.369823709784 2.1787907983355 2.5075164123439 2.2365345484272 2.7219523785421 2.9796260321791 2.6980006963025 2.870002831174 2.7944140701268 2.9319033184904 2.770587404709 2.6247875993999 2.9611017208024 2.7518011624225 3.1018479454503 2.8111680413375 3.0317534373964 2.800024794171 2.9211598405575 2.7115880284306 2.7319365636028 3.1165289615045 3.0476188561294 2.87004713742 3.1400022181138 2.7901016798442 2.748826448301 3.4197657089121 2.8508423488986 2.5868330366014 2.9987992893361 2.5777051318355 3.0043229766569 2.6326675775439 2.6449273693391 3.0170063524459 2.5662550600711 2.7469064962694 2.7455026686219 3.0167923839423 2.6555746943224 2.8899187505214 2.4214407512434 2.3870698966176 2.652304197079 2.5259042374989 2.262190591287 2.5521781261818 2.3193485656738 2.5815677328752 2.8192680040346 2.4008581138176 2.061598931567 2.4941045956701 2.561757804814 2.3654741572748 2.6060031614885 2.8331493775869 2.7662508508859 3.0165410205294 2.5194554576082 2.7766435310312 2.7699739398826 2.660976280944 2.7672882911174 2.7283367362507 2.4349177043568 2.7955360923896 2.7367287991555 2.9355807196877 2.7767914464215 2.1956582537811 2.562867677818 2.4260204383513 2.1031272326454 2.9211010508926 2.5472777760765 3.0161745922044 2.3792747786476 2.4864987369477 2.2489127004914 2.4432691965194 2.4597045493025 1.9518244175738 2.0449649389244 2.4820268644076 2.2575990148507 2.0852385430336 2.4018031032736 2.8102482421154 2.3120990563656 1.8422955401503 2.7304477577462 2.422222657679 2.6799719217379 2.1063826529066 2.3082087811997 2.6183686762976 2.5037518751056 2.744525895133 2.4931190608532 2.6048413725276 2.486740699012 2.3798449988624 2.3931729428112 2.5719682407121 2.2697047944504 1.4712345209394 1.6634525538637 2.2225172107649 2.3423197268351 2.1463009156521 2.5019975285196 2.004860369157 2.4571503461073 2.6073074593345 1.8835877737287 2.5870133300175 2.2917500875329 2.6524838779363 2.501197689458 2.6353654171586 2.3953057227719 2.3865536695094 2.2093049211402 2.5224293419522 2.1858969361165 2.1796677002392 2.4116657438008 2.045287390229 2.3442621917825 2.3626829244203 2.3002531405997 2.5013971994796 2.2050932116737 2.7787257360832 1.8326464719139 2.5499296484678 2.3731365652741 2.5549986966184 2.4702619296756 2.0900272448234 1.959540655531 2.0725912779069 2.1161297249268 1.6817961097311 1.2978372243807 2.344398231555 1.8779185461577 2.6413616925736 1.5365390604226 2.3052315672894 1.9166956098133 1.9546258687214 2.4193132061848 1.4645852585681 2.2986116883983 1.8878966810468 2.506293450344 1.8485939732396 0.94808827801437 2.2055846834033 2.0428110277025 1.7209308645554 1.6818707364067 2.1241040205923 2.4608763381197 1.25573907317 1.5568188368241 1.9238587033468 1.9044722742068 1.1369451658589 2.0091859571639 2.1753112117474 2.0752130377501 1.4046558780277 2.287448581768 2.0485624995192 2.0687670989816 2.028217137225 1.9763115896486 1.9454328574697 2.3520195031716 1.9140723045675 1.365674738285 1.6888009631626 1.6391088633825 0.87418213820396 1.3883771519687 2.055524124559 1.7380298187061 1.9764625690626 1.8986519323096 1.7806915801769 0.79197726124726 2.0880268872294 1.6052521502425 2.0743030931672 1.7493301643665 1.398642461628 1.8753790162674 1.7562095205647 2.2758801385928 1.8219292686322 2.4244351939707 2.0333352151834 1.4612553191976 1.9793918832886 1.7372444962036 1.7124743505959 2.2517316992557 2.2540005784673 1.5411740828313 1.0513919252177 2.5881404919018 2.0020481570136 1.6571341307826 1.300840988234 2.1527180818318 1.6624221960926 1.4120646935904 2.3284157088011 2.1790159021008 1.1116370706367 1.5428989693773 1.0089260986793 1.9940980775524 1.9337942597705 1.6214386781213 2.0813077811536 1.1772502988066 0.84181971792115 1.0778096061624 1.6799475917419 1.588268193461 1.5944004340196 0.80361755222667 1.5902495562557 1.2509708820044 0.84022798798199 0.98678261681887 1.1441420240606 1.5106515621398 1.0912808417454 2.4365462819775 1.7100256848265 1.7451555138584 1.898043889235 1.0076100661409 1.8706667481611 1.6268174275769 1.658477934777 1.5085065208568 1.1800209243963 0.91516276792343 0.63430376473612 1.532105755864 1.541817542609 1.7383493817067 1.1667973371775 1.622153610049 0.86863436322493 0.89823125839071 1.6283978813302 1.3981751649795 1.1385805116239 1.5585267228101 0.81982651357727 1.2009356602174 0.5813022986951 0.73618570243026 0.6681698310579 1.2392377542495 1.4490487773488 1.312763963001 1.1068946145451 0.73075840564937 1.3298263082343 0.98761299755051 1.5868017429526 0.9205460284656 1.2746743531453 1.3402342487998 1.2532276878893 0.80662125145113 1.067109175595 1.4108711777818 0.70821082238181 0.63619015389461 0.69825120494312 0.95762794062321 0.91043646566165 0.82970796543817 
SCALARS Marker double 1
LOOKUP_TABLE default
0 1 2 3 4 5 6 7 8 9 10 11 12 13 14 15 16 17 18 19 20 21 22 23 24 25 26 27 28 29 30 31 32 33 34 35 36 37 38 39 40 41 42 43 44 45 46 47 48 49 50 51 52 53 54 55 56 57 58 59 60 61 62 63 64 65 66 67 68 69 70 71 72 73 74 75 76 77 78 79 80 81 82 83 84 85 86 87 88 89 90 91 92 93 94 95 96 97 98 99 100 101 102 103 104 105 106 107 108 109 110 111 112 113 114 115 116 117 118 119 120 121 122 123 124 125 126 127 128 129 130 131 132 133 134 135 136 137 138 139 140 141 142 143 144 145 146 147 148 149 150 151 152 153 154 155 156 157 158 159 160 161 162 163 164 165 166 167 168 169 170 171 172 173 174 175 176 177 178 179 180 181 182 183 184 185 186 187 188 189 190 191 192 193 194 195 196 197 198 199 200 201 202 203 204 205 206 207 208 209 210 211 212 213 214 215 216 217 218 219 220 221 222 223 224 225 226 227 228 229 230 231 232 233 234 235 236 237 238 239 240 241 242 243 244 245 246 247 248 249 250 251 252 253 254 255 256 257 258 259 260 261 262 263 264 265 266 267 268 269 270 271 272 273 274 275 276 277 278 279 280 281 282 283 284 285 286 287 288 289 290 291 292 293 294 295 296 297 298 299 300 301 302 303 304 305 306 307 308 309 310 311 312 313 314 315 316 317 318 319 320 321 322 323 324 325 326 327 328 329 330 331 332 333 334 335 336 337 338 339 340 341 342 343 344 345 346 347 348 349 350 351 352 353 354 355 356 357 358 359 360 361 362 363 364 365 366 367 368 369 370 371 372 373 374 375 376 377 378 379 380 381 382 383 384 385 386 387 388 389 390 391 392 393 394 395 396 397 398 399 400 401 402 403 404 405 406 407 408 409 410 411 412 413 414 415 416 417 418 419 420 421 422 423 424 425 426 427 428 
SCALARS Resistivity double 1
LOOKUP_TABLE default
109.49730621212 70.02837938779 73.38600368302 60.202919456062 74.932159546872 82.059462741657 75.431986354243 55.036881399116 81.001892004427 79.783498127376 66.261792967685 67.868359596072 39.013817693288 58.205372818202 65.885209329925 81.71163114804 74.670600393831 42.46870189104 107.40960494392 44.989215249406 42.315268878749 138.61524228954 79.755973280841 70.107880658495 54.119259001199 54.057529137612 47.085724066448 171.02618387555 35.610278250358 31.780499029269 43.074354623771 108.98995472445 72.216123264038 39.43749914035 66.419956535962 147.92563015472 69.215875059391 148.46341241869 136.59345773287 84.568965357068 73.038681856974 101.2378757026 65.757290395245 51.052312758201 65.876504987942 38.583489055461 66.592203242123 181.77661952958 67.110313372219 75.534461367874 39.203156162101 68.113548929049 53.167628137158 40.157028359879 34.54429728219 67.003564534454 51.011697920459 60.424184469695 80.67258069155 66.187127743607 77.340745745247 94.386786094168 69.042452856832 34.1943478786 88.070096794671 63.15710939288 66.719610925176 48.234322040547 77.964561735647 43.487468060217 112.56448361962 82.191124812342 97.127854239467 80.332364517418 64.70256716841 51.14182094988 68.318313770831 53.438923180237 71.940924278919 102.39035918015 53.708487357926 83.225169858416 70.178205832136 58.139498446019 70.874677868098 90.038688547265 57.720008915973 66.460562962427 82.127583799791 73.084523677143 62.323131819438 82.66209152262 81.530054143994 79.439834942605 34.557502066965 34.55572423564 63.979781497325 61.743015034281 38.380896373688 82.953042300515 146.70778251782 100.80953068067 113.24585676886 84.264612847642 65.849604953795 47.987661721501 81.200217545121 38.585528329568 60.405838446535 48.605352035585 196.85990007288 209.82146892601 74.222171931316 49.689952074351 47.934911972582 39.542856740834 67.310325627936 115.70182315704 61.067904384563 50.066172113615 180.67472123503 85.406871434459 78.071063222119 82.988732201294 75.65405741019 78.253513614065 227.82215697885 53.814870518754 90.777455305124 64.081188755342 71.159836107061 88.956734908016 62.497107222812 46.599536611973 30.622267047594 84.487541952058 71.051879084605 67.844171656408 74.879138874608 75.257084983318 71.100332902521 80.170100079632 65.361208878482 36.814486826819 78.924994704293 48.117756503657 45.679854511715 52.096609837192 40.204646107908 59.604188975841 60.549114325909 70.413818184858 84.966261762273 77.441676683244 60.419152498226 68.672426686345 82.465152687245 59.420297943387 108.86235688325 93.792603490202 61.349026997884 87.773423149121 58.766569650596 82.689777223636 62.472660083495 90.017086389834 57.287244120135 120.2247223537 163.88414462361 68.288191080631 80.816317205719 47.067915536135 79.414208725133 64.294364072361 81.334339457096 110.61278203851 57.826130905436 69.952391123532 75.238716459228 52.275668542035 35.560057158991 58.55754575036 52.776471100562 48.808647872691 60.245526750631 50.978589147934 67.04133890726 54.866595110068 93.281757224666 87.581633839829 67.422793788413 81.765071941426 90.069789199111 76.657374839214 57.419951502812 40.69032755974 81.055503727856 60.505087482184 74.148354317092 136.18561317009 88.122890739198 54.363180783989 69.956591509857 85.12358194044 57.906659749806 76.410881693978 70.147935663814 55.011677491476 69.324945153078 72.949194843479 63.648562535456 69.148728313845 89.14141466576 75.787063012317 113.22103560138 78.406824232128 81.809525028034 40.594081845147 66.75976899663 67.435738854069 58.776690797025 98.339879769589 95.714169049139 131.18621516495 97.994500721682 130.31774920827 100.05274937928 71.560449347987 65.29948162733 88.939574305158 98.245121711741 60.758073384182 75.135215252857 77.835933372747 82.685124821469 84.739658949945 78.24803041509 80.306966893837 81.966779029725 100.46668050635 96.447273238438 73.641643438902 87.639912635643 123.63981544173 112.11956341253 84.030771931973 86.144601025642 74.875834041725 66.075778585791 114.16632259165 61.780452741596 77.839899754316 70.682728122376 74.343819887896 85.016914294537 85.578874497017 82.988949442903 73.253700451761 80.636681446223 106.24975739223 131.12040598437 80.671782442588 90.746727897207 91.282744689426 81.124943177132 146.5153506964 86.731577162202 84.013449147719 83.988534111632 76.670666690039 132.06703268524 70.632224309737 172.78844231264 72.61322842548 84.296394212292 100.30828672658 108.13393249728 78.07440854747 141.51221355461 154.96154606336 144.03405418874 213.08772993504 163.45674953047 109.69096811853 173.13061125621 81.888119098718 113.40251143426 61.666249298545 108.15892096083 131.1807202637 103.07569197591 142.76932349582 88.255051436238 144.7778365505 79.419187228838 107.5065153214 244.9148413187 99.171270183934 120.47092930238 125.29310021123 88.595655038775 126.20650889976 54.121238224523 246.44664867916 218.90334471361 166.23524621842 119.72224197812 169.35757373212 98.021603092445 109.95899051283 103.74846802798 143.0676308361 86.785047350119 112.88369218878 107.40309808874 103.51245126218 68.867199078158 103.30631454104 72.374604900997 133.06759140299 156.24667376843 169.64620877608 117.00948743598 283.98876459825 156.94400221836 110.04512443675 167.3134514006 74.624746969482 71.942448008489 88.397602994821 400.34941116052 103.55798931873 100.43251619278 98.661378298191 115.57256617943 129.31833414951 79.76027341022 163.03364517018 104.29576447382 108.46975209951 83.227885886034 102.06333947232 130.39534209179 121.17419791438 135.90177801407 122.51437805762 99.696031779413 104.06888302912 193.3985949797 206.65756845938 62.404490239302 105.59749017271 125.07590367452 149.13962160655 89.219157270467 98.660370840538 141.35432359032 77.744822174024 107.41136069073 210.51450598202 179.90720802253 292.04831317446 143.76891969849 105.66159284625 129.85743566776 104.59297753892 156.82672380062 259.1804972432 207.44171965159 88.001588594915 107.66456179681 134.10288125598 225.48636052647 163.30788738045 182.11145490162 261.22942260349 195.25332622667 177.66131581133 200.76827633124 244.75572579891 68.041389386016 185.43118756298 199.54364192244 180.9829412958 202.17492825433 121.41099665097 236.59872320671 101.30542922258 209.47393546529 323.57279291389 233.79264945377 292.60523094751 216.90479357696 212.77769795068 203.36709990393 255.81230374665 163.81223973555 360.162762376 260.9111386893 173.67745405507 229.20036871499 349.42265499013 132.11179324471 298.67853878477 248.83536834101 314.15778292611 317.11600110065 359.69973104117 200.81689704446 253.15493178577 244.62631648963 263.68638650202 247.22034361066 308.12729976555 344.83182850997 205.57849436552 316.76563345254 212.33235041577 186.44072261705 309.1508726269 394.55083354954 305.40276718838 230.67072479025 276.88714930687 221.48149303281 211.29591128449 386.12302926629 386.526437012 380.71670743677 
SCALARS Resistivity_(log10) double 1
LOOKUP_TABLE default