# vtk DataFile Version 3.0
d-2__ created by libgimli-v1.5.0-1-g5991b6ac
ASCII
DATASET UNSTRUCTURED_GRID
POINTS 803 double
8.3333333333333	0	0
8.5	-0.29429712828708	0
8.6666666666667	0	0
21.166666666667	-0.35154628884587	0
21.333333333333	0	0
21	0	0
-0.13949540192174	-0.65832226163824	0
0.26765699968102	-1.1941152153012	0
0.50098922076846	-0.451860121227	0
11.833333333333	-0.28867513459481	0
11.666666666667	-0.84084908820295	0
12	-0.57735026571174	0
-1	0	0
-0.82347194173878	-1.6006755924119	0
21.666666666667	0	0
21.5	-0.55217395360815	0
1.1666666666667	-0.35154628884586	0
1.3333333333333	0	0
1	0	0
1.5	-0.55217395360814	0
23.61842901153	-0.60378553647188	0
24.166666666667	-0.55217395360814	0
23.833333333333	-0.35154628884586	0
1.6666666666667	0	0
8.1666666666667	-0.35154628884586	0
1.8333333333333	-0.35154628884586	0
2	0	0
4.8333333333333	-0.35154628884586	0
5.1666666666667	-0.55217395360814	0
5	0	0
2.6666666666667	0	0
2.3333333333333	0	0
2.5	-0.35154628884586	0
2.1666666666667	-0.29429712828708	0
8.4079889429861	-0.75760412093209	0
9.0144333430414	-1.1439190584088	0
8.8333333333333	-0.55217395360814	0
13	0	0
13.166666666667	-0.29429712828707	0
13.333333333333	0	0
3.1666666666667	-0.35154628884586	0
3.5	-0.55217395360814	0
3.3333333333333	0	0
16	0	0
16.166666666667	-0.29429712828708	0
16.333333333333	0	0
3.6666666666667	0	0
3.8333333333333	-0.29429712828707	0
4	0	0
4.3333333333333	0	0
4.1666666666667	-0.35154628884586	0
27	0	0
26.833333333333	-0.35154628884586	0
27.166666666667	-0.55217395360814	0
3	0	0
16.5	-0.35154628884586	0
16.666666666667	0	0
2.8333333333333	-0.55217395360814	0
13.5	-0.35154628884586	0
13.666666666667	0	0
4.5	-0.55217395360814	0
4.6666666666667	0	0
3.9253443903472	-0.75760412093208	0
29.833333333333	-0.29429712828707	0
30.166666666667	-0.35154628884587	0
30	0	0
35.905165514021	-0.87509566217462	0
36.166666666667	-0.35154628884586	0
35.661339523067	-0.61041034021497	0
5.5	-0.29429712828708	0
5.8333333333333	-0.35154628884586	0
5.6666666666667	0	0
5.3333333333333	0	0
27.333333333333	0	0
27.5	-0.35154628884586	0
35.833333333333	-0.29429712828708	0
6.1666666666667	-0.55217395360814	0
6.3333333333333	0	0
6	0	0
37	0	0
37.166666666667	-0.35154628884586	0
37.333333333333	0	0
10.741322276319	-0.75760412093209	0
11.175685896383	-1.113902458684	0
11.166666666667	-0.55217395360814	0
6.5	-0.35154628884586	0
30.795730030397	-1.0103532830333	0
31.229185900173	-0.87228466782526	0
31.000045632922	-0.57199295442671	0
31.666666666667	0	0
31.833333333333	-0.55217395360814	0
32	0	0
40	0	0
40.166666666667	-0.35154628884586	0
40.333333333333	0	0
6.8333333333333	-0.29429712828708	0
7.1666666666667	-0.28872883340808	0
7	0	0
7.2211097499487	-1.0538354750778	0
7.0053271435993	-0.61041034021496	0
6.7615011526461	-0.87509566217461	0
9.5	-0.29429712828707	0
9.3333333333333	0	0
9.1666666666667	-0.28872883340808	0
7.3333333333333	0	0
39.666666666667	0	0
39.833333333333	-0.29429712828708	0
13.674580112811	-1.7184248716052	0
14.353791495618	-2.0265268011931	0
13.958469529133	-1.3940906823913	0
7.6666666666667	0	0
7.8333333333333	-0.55217395360814	0
8	0	0
12.994672856401	-0.61041034021496	0
5.5920110570139	-0.75760412093209	0
5.8348685364776	-1.5356869134354	0
9.8333333333333	-0.35154628884586	0
9.5718321806872	-0.87509566217461	0
10.166666666667	-0.55217395360814	0
7.33337923226	-0.57364431858631	0
10.36828810089	-1.6552861219901	0
6.6666666666667	0	0
36.666666666667	0	0
36.833333333333	-0.29429712828708	0
37.5	-0.55217395360814	0
24.333333333333	0	0
24	0	0
12.503171480364	-0.86507900392268	0
12.328351644367	-1.416191408927	0
12.778890250051	-1.0538354750778	0
11.5	-0.28867513459481	0
19.666666666667	0	0
19.833333333333	-0.35154628884586	0
20	0	0
9.6666666666667	0	0
20.5	-0.28872883340808	0
20.666666666667	0	0
20.333333333333	0	0
20.905165514021	-0.87509566217461	0
10.5	-0.35154628884586	0
10.333333333333	0	0
9.3280061897341	-0.61041034021496	0
10.833333333333	-0.29429712828707	0
10.666666666667	0	0
22.833333333333	-0.55217395360814	0
22.5	-0.72876886968591	0
22.915493514149	-1.1101467813362	0
5.2020787936337	-1.0219070688786	0
18.833333333333	-0.29429712828707	0
18.925344390347	-0.75760412093207	0
19.166666666667	-0.35154628884587	0
22.666666666667	0	0
22.5	-0.35154628884586	0
13.833333333333	-0.55217395360814	0
14	0	0
16.833333333333	-0.55217395360814	0
0	0	0
14.166666666667	-0.35154628884586	0
14.333333333333	0	0
14.5	-0.55217395360814	0
14.833333333333	-0.35154628884586	0
14.666666666667	0	0
15	0	0
15.166666666667	-0.55217395360814	0
15.333333333333	0	0
2.0948344859795	-0.87509566217461	0
2.2850956781966	-0.60378553647187	0
12	0	0
11.666666666667	0	0
22.166666666667	-0.95506458788032	0
22.166666666667	-0.55217395360814	0
21.833333333333	-0.7287688696859	0
15.5	-0.35154628884586	0
15.666666666667	0	0
17	0	0
20.833333333333	-0.29429712828707	0
20.661339523067	-0.61041034021495	0
9	0	0
14.166666666667	-0.72876886968591	0
17.333333333333	0	0
17.166666666667	-0.35154628884586	0
18	0	0
17.666666666667	0	0
17.833333333333	-0.55217395360814	0
17.5	-0.29429712828708	0
16.258677723681	-0.75760412093209	0
12.833333333333	-0.28872883340808	0
18.166666666667	-0.35154628884586	0
18.333333333333	0	0
17.407988942986	-0.7576041209321	0
19	0	0
19.333333333333	0	0
18.666666666667	0	0
12.166666666667	-0.28867513459481	0
12.333333333333	0	0
15.833333333333	-0.55217395360814	0
20.166666666667	-0.55217395360814	0
19.5	-0.55217395360815	0
7.5	-0.28867513958836	0
23.5	-0.29429712828708	0
21.833333333333	-0.35154628884586	0
22	0	0
26.592011057014	-0.7576041209321	0
22.333333333333	0	0
23.934922518609	-1.0280995368212	0
25.166666666667	-0.35154628884587	0
25.5	-0.55217395360815	0
25.333333333333	0	0
23.166666666667	-0.35154628884586	0
23	0	0
26.666666666667	0	0
26.5	-0.29429712828708	0
23.666666666667	0	0
23.333333333333	0	0
26.166666666667	-0.55217395360814	0
26.333333333333	0	0
26	0	0
24.761501152646	-0.87509566217461	0
24.951762344863	-0.60378553647187	0
24.5	-0.35154628884586	0
33.5	-0.35154628884586	0
33.238498847354	-0.8750956621746	0
33.833333333333	-0.55217395360815	0
24.666666666667	0	0
28.166666666667	-0.35154628884587	0
28.5	-0.55217395360815	0
28.333333333333	0	0
25	0	0
24.833333333333	-0.29429712828707	0
27.761501152646	-0.87509566217461	0
27.951762344863	-0.60378553647187	0
29.333333333333	0	0
29	0	0
29.166666666667	-0.55217395360814	0
25.833333333333	-0.35154628884586	0
29.947484315848	-0.62869436758688	0
30.409983486194	-0.76921735210505	0
34.166666666667	-0.72876886968591	0
34.166666666667	-0.35154628884586	0
25.666666666667	0	0
35.445556916718	-1.0538354750779	0
35.333287434407	-0.57364431858632	0
29.666666666667	0	0
29.5	-0.28872883340808	0
26.834868536478	-1.5356869134355	0
30.833333333333	-0.28872883340808	0
30.671365010853	-0.57276869068256	0
27.666666666667	0	0
38.204670056311	-1.4270134762662	0
38.601589185276	-1.0280995368212	0
38.094834485979	-0.87509566217463	0
28	0	0
27.833333333333	-0.29429712828707	0
36.662074300781	-0.56642454030296	0
28.666666666667	0	0
31.746636025369	-1.1187108767801	0
28.833333333333	-0.35154628884586	0
33	0	0
33.166666666667	-0.29429712828707	0
33.333333333333	0	0
34.5	-0.55217395360814	0
34.731644951192	-0.92970615345739	0
35.666666666667	0	0
35.5	-0.28872883340809	0
30.333333333333	0	0
31	0	0
31.166666666667	-0.28867513958836	0
31.333333333333	0	0
38.285095678197	-0.60378553647188	0
37.833333333333	-0.35154628884586	0
30.666666666667	0	0
30.5	-0.29429712828708	0
36.5	-0.28872883340808	0
33.666666666667	0	0
36.41952417611	-0.77749898599357	0
38.5	-0.35154628884586	0
38.833333333333	-0.55217395360815	0
38.666666666667	0	0
29.657657699283	-0.83081436360664	0
40.168201869811	-1.5356869134355	0
40.5	-0.55217395360814	0
39.925344390347	-0.75760412093211	0
32.994672856401	-0.61041034021495	0
31.5	-0.35154628884586	0
43	0	0
42.666666666667	0	0
42.833333333333	-0.29429712828707	0
43.404176293252	-0.42323554094762	0
35.88498281448	-1.5034830799843	0
41.166666666667	-0.29429712828708	0
41.074655609653	-0.75760412093211	0
41.5	-0.55217395360814	0
41	0	0
41.333333333333	0	0
34.333333333333	0	0
32.166666666667	-0.35154628884586	0
32.333333333333	0	0
39.5	-0.55217395360814	0
39.333333333333	0	0
36.500673817427	-1.6307728168531	0
40.833333333333	-0.35154628884586	0
34.666666666667	0	0
35.333333333333	0	0
35.166666666667	-0.28867513958836	0
35	0	0
36.333333333333	0	0
36	0	0
12.333333329009	-0.57732068917697	0
37.666666666667	0	0
7.9035368819631	-1.2622568520387	0
28.737635378193	-1.2311528923644	0
29.212976838479	-1.0424777721347	0
28.833333333333	-0.7287688696859	0
12.66662076774	-0.57364431858631	0
38.166666666667	-0.29429712828707	0
38.333333333333	0	0
12.5	-0.28867513958836	0
39	0	0
39.166666666667	-0.35154628884586	0
20.347766676375	-1.1439190584087	0
19.833333333333	-0.7287688696859	0
40.666666666667	0	0
42.5	-0.35154628884586	0
10	0	0
18.5	-0.55217395360815	0
41.666666666667	0	0
23.428167819313	-0.87509566217462	0
42	0	0
42.166666666667	-0.29429712828707	0
42.333333333333	0	0
42.744785246826	-0.77776727251482	0
41.833333333333	-0.35154628884586	0
38	0	0
41.542494325991	-1.1832128457714	0
2.6015891852757	-1.0280995368212	0
13.258353909981	-1.6064355191183	0
4.8333333333333	-0.72876886968591	0
15.5	-0.7287688696859	0
15.8687454603	-1.0219070688786	0
16.501535203144	-1.5356869134354	0
14.833333333333	-0.72876886968591	0
12.666666666667	0	0
17.797921206366	-1.0219070688786	0
18.166666666667	-0.7287688696859	0
36.905165514021	-0.87509566217463	0
32.666666666667	0	0
32.5	-0.55217395360814	0
34.833333333333	-0.28867513459481	0
34.999999995676	-0.57732068917696	0
34	0	0
35.169838147031	-0.8650790039227	0
42.285095678197	-0.60378553647188	0
41.877780449001	-0.80261564071807	0
13.238498847354	-0.87509566217461	0
11.333333333333	0	0
11.697267761921	-1.4738194081615	0
12.166692603518	-0.86967323340335	0
3.1666666666667	-0.72876886968591	0
11	0	0
18.535412126967	-1.0219070688787	0
25.833333333333	-0.7287688696859	0
25.268255851942	-1.0280995368211	0
28.268255851942	-1.0280995368211	0
[...]
CELL_DATA 1424
SCALARS Coverage double 1
LOOKUP_TABLE default
2.8763366569994 3.1181532701055 2.0307819935795 2.6068028649701 1.8163827413607 2.9895699975628 2.8243028353776 2.3348091432451 2.7516050868271 2.6076584454904 2.8295548091448 2.437818311962 2.83913175539 2.6570523609277 2.6815055637962 2.6062299608127 2.4732413829761 3.2149141369737 2.6443820854493 3.2151803239153 3.2771638138149 3.2494037665851 2.9310456900374 2.9699102963716 2.9574676955182 2.9449447943546 2.9545476335473 2.8716640933383 2.5310091034492 2.9330646912861 2.9852897147921 2.6413350085342 2.7687052664463 2.9573468223555 2.9178688943304 2.7443051052209 2.9910297694385 3.3054136136274 2.4893553133092 2.7538815427421 2.6421839557166 3.0190129058285 3.1611449002134 3.2570862309052 2.8214384155487 2.4495396382056 2.8708491625835 3.2599023951522 3.2717765035325 2.1045319408188 2.9878641786863 3.0581261617553 2.7064536536225 2.3509061368692 2.8015640626914 2.6253807011402 2.4983455730868 2.4168978461607 2.8753115385807 2.9482929223127 3.3223465937309 2.8775403366161 3.13733242492 2.349744686813 2.6175551215439 3.0924779314253 2.9910154344057 2.9146140368398 2.6642043596059 2.8014316136955 2.9216932138904 2.7250865501036 2.8416258666845 2.5901157453256 2.4013569891035 2.7316569586107 2.854050431599 2.7693915716077 2.4577946667284 3.0384079065687 2.7888069766604 2.5747476477237 2.7503731808983 3.0724617149402 2.5969233714826 2.7856023648771 3.0216024779776 2.873578926462 2.8499035248052 2.3268779827675 2.7849183083234 2.4263838790631 3.0641381085359 2.6242853027103 2.5093462145787 2.9502262820665 2.3514460767661 3.0467791815952 2.7434006326789 3.0170081521937 2.6387715644576 3.0733741996141 2.6739585311263 3.0096641343382 2.8424612921651 2.7039804486532 2.8058871138548 2.7522697598567 2.8287660772754 3.0392365266868 2.6440709763083 3.228894552542 3.2698787798758 3.0674346093921 2.6443243533397 2.8658882467245 3.1494325887124 2.8154443592585 3.1529391870198 2.8819962170323 2.7597761379536 2.8861393195171 2.9462850812928 2.8065368499769 2.7332148944026 3.0694838810591 2.7568530916382 2.8005021561051 2.9137423671768 2.8128722156757 3.313382143812 2.7453791270061 3.0468260449932 3.2622683300825 2.628464597823 2.9362027640095 2.8763120943546 2.965188075822 3.1929274885978 2.9215842761822 3.166745325985 3.1093899824421 2.7224610795438 2.72364996675 3.0874179215308 2.9527295673733 3.3882900387357 2.9834304527976 2.7421625602132 3.192744304895 2.8645057261385 2.7507244949904 3.0172251799939 3.2150223342023 2.783722622474 3.1952544283616 2.5733170370041 3.0626396020143 2.9890476764304 2.870485973862 2.5564237113209 2.813896503726 3.1068754239113 2.2999263218159 3.3813894673667 2.9903868516381 2.7515106024301 3.0837068478184 2.610523017113 2.8832187469348 3.2334403336189 3.1849734348452 2.9102238217047 3.2078499681372 2.655592904218 2.9194854504363 2.6586404723621 3.1974596856143 3.2198517888407 3.3844519469615 2.5991206459509 3.1012191034728 2.9724577010494 3.1068097617694 2.974963493994 2.8799871085606 2.7271203647817 2.7592114336896 2.7457854531507 2.4046950946656 2.7982368679763 2.7551288045977 2.9057270835139 2.9265703728613 3.0939056172855 2.2757067014643 2.4177572987557 2.8104095362487 2.4745609103277 2.987376492651 2.9460485803823 2.8287918912936 3.1851879171414 2.9183018840238 2.2944293752311 2.519112472885 2.6363534079949 3.0689290350624 2.7245388868776 2.9702673994941 3.2076992220409 2.9623518211119 2.66676873442 3.1296883133682 2.6710925697016 2.9769185257162 2.8162482949373 2.6984319679701 2.7642871214453 2.4351794911998 2.8710251313035 2.5793747048853 2.5331121152472 2.6616187402973 2.4971867541127 2.8328375308633 2.8592487692835 3.0695558038663 2.8782379760822 2.7676155235537 3.0514410112411 3.1128520961702 2.5402663240614 2.8806742442917 2.536009535537 2.8932866112649 2.7319330810873 3.2177595620876 2.9333870067845 2.9656131129299 2.8717203248241 2.6817712097074 2.7090023493637 2.8749508613154 2.6754604391391 2.9750461675175 2.8810963882244 2.1912337418426 2.7271123129587 2.7516321325469 2.9746472821572 2.5956821694031 2.7260273958015 2.6549746442578 2.7791546415466 3.0929121376433 2.673074981822 2.882495249237 2.3089267714598 2.4614610898376 3.1553049339105 2.3191793582078 2.6357767208625 2.8034699106784 2.5815382043835 2.8163562060887 2.542159285347 2.6076147448439 2.7309002055576 2.2487972176406 2.5614283324342 2.6728410705384 2.5505708157773 2.5506234643891 2.4597418772192 2.6543047714203 2.7790300922396 2.7973046516474 2.6373722147573 2.6384549082495 2.794215356272 3.2158821335533 2.8976346346889 2.5181937784993 2.668218787555 2.6480859206629 2.7808394202409 2.6954591622769 2.7926751997561 2.8379390126595 2.6805138444636 2.7965225307788 2.8073262907499 3.4026852040802 2.8623680094105 2.9213243494697 2.7592439097752 2.8148115323113 2.8307726287468 3.3918959775206 2.8736199647229 3.0309886993632 2.7579135842491 2.5762489708311 2.9635451649079 2.7812461574714 2.8181875085056 3.3823134107412 2.9644244780274 2.967932960363 2.9464570205582 3.3442352697604 2.689214791412 2.7907871353407 2.6011382273208 2.3799092683789 2.9062594727279 2.6052656312942 2.6786749378076 3.0972899964095 2.7012047875023 3.0384340821523 2.8236951208336 3.0056265249159 2.3373959116791 2.4069769618157 2.583803747906 2.5584102142381 2.6469505724246 2.7739079165183 2.582933841054 2.495885241824 2.6196273892748 2.8388163042359 2.7934811745423 2.915618087743 2.3598561820966 2.2448344724864 2.882434505042 3.2577682862846 2.9800016857238 2.8154823255249 2.6512154278433 2.6775517323989 2.6235760195338 2.7905904568299 2.6810792808335 2.8736259605388 2.702320895181 2.6815358839205 2.9319216278073 2.5481978131002 2.2921251958858 2.5906122167594 2.5115631330596 2.347032836074 2.7171272688814 2.7122909991789 2.4125631810279 2.9559511171321 2.636213541804 2.4884604072033 2.5452598681204 2.6647943744869 2.565867543524 2.649720559293 2.3897951326168 2.8968847274386 2.7756253535106 3.0208102650577 2.7201152465867 2.6556081874746 2.693637539675 2.9266402471391 2.7931164774286 3.0330921173552 2.7511970715577 2.9344384882741 2.9188405442389 2.6716222286425 2.7540291599933 3.0404522058074 3.2180846646423 3.1562896833405 2.5936608325667 2.7852385225398 2.820725801134 2.8904665623001 2.5495021022492 2.7526890469235 2.9091695434021 2.7097613270812 2.6110323034053 2.8243824402075 2.6339355706584 3.3953346539789 2.4799205033605 2.5295304944184 2.3797730265155 2.6094315280329 2.2852415204901 2.4608359873519 2.3151118166686 2.3700835213747 2.5697483330913 2.3293072166478 2.3039653186395 2.8891149638047 2.4672692362181 2.5354628177007 2.6179366165037 2.6893865516952 2.5493260837301 2.6648250579009 2.5061491509656 2.7310836176834 2.6774438164195 2.2852244640982 2.5292047895794 2.5524086581316 2.3860738248102 1.9890015068041 2.5325704332859 2.5910120607511 2.7764461185569 2.6255265299728 2.786104268363 2.6469586276123 2.2098374245321 2.7770328169265 2.5922646064701 2.7324498824702 2.549540358769 2.8713933102923 2.5671057123772 2.914774236549 2.5915969459308 2.2619462580441 2.2654041439914 2.7279639475328 2.7246468098933 2.7967451937028 2.5630504434598 2.4286237142737 2.2268602114524 2.8280324068633 2.6217932962499 2.8476713204255 2.6380021535941 2.7035867774177 2.445321676926 2.4615286444943 1.901331113127 2.5556065194824 2.4006205630104 2.0555031497675 2.1906042103445 2.4081120800066 2.4574300306057 2.4784434561497 2.5344593197125 2.9102017035734 2.4548699144041 2.2359685077047 1.9300190623154 2.1724204377194 2.6341880696695 2.3838365604541 2.4276887484088 2.06355975279 2.6814889524197 1.8125758317885 2.7411838000432 2.5164676049363 2.5430800302493 2.4879397695649 2.7753617794082 3.2665766103692 2.3858501160876 3.0840621453946 2.5311841174496 2.5455692880265 2.5671327386343 2.6356339363354 2.37720901853 2.6097171964379 2.5337557393121 2.5569826281903 2.2306857328965 2.64088771624 2.4622564794848 2.6730619955847 2.0870518618934 3.0865599862242 2.5419773949828 2.4685264025206 2.3019106108156 2.4010560449278 2.5226959418552 2.6440924350964 3.0241286155539 1.7323261453271 2.6923017772091 2.6265427478637 2.3423124960402 2.4605084611521 2.0293725067804 2.1533960735186 2.5497805461892 2.2576635562015 1.8551947641802 2.4726426572379 2.3496080660376 2.8189807967301 2.0940982910553 2.3116129828539 2.3028648562728 2.3736373538734 2.0782121184851 2.0934158417613 2.4768348029917 2.6621080271991 2.4905737170272 2.4395385126599 2.2856805965268 2.3313690623611 1.9838958681833 2.4774827484119 2.2041553825145 2.2062957797783 2.4936822333694 2.3805517544291 2.5851720965213 2.3517034375287 2.1415136329964 2.5177194041936 1.8401906823407 2.1635217955284 2.4303961066752 1.6372773373765 2.2806193989417 2.2652690080123 2.5504608868407 2.3435433261832 1.7987774856468 2.566700111723 2.5304527358307 2.6169914323065 2.6324649476265 2.4663674985083 2.367871077466 2.4510310296739 2.433805880458 2.4468243938644 2.0995058717034 1.9938949988807 2.6216734338846 2.5166253135184 2.3231119130632 2.4049710065044 2.3325629372728 2.6881735003772 2.3913113088435 2.2450714210962 2.2280255550172 2.2665002876626 2.3707609560874 2.5453886420712 2.9624406001282 2.6256027932423 2.0113322933415 2.4770601857187 2.8451655607794 1.9814000947797 2.4003384016446 2.4029093352171 2.2881576391573 2.2836767024905 2.6471600534948 3.0408363084496 2.376060912939 2.3237103364881 2.321591230069 2.3699567502981 2.7292723176576 2.4557259043758 2.1509563054716 2.142752345304 1.6810363799157 2.1061030518942 2.1919813502069 1.739971222056 2.7784599401326 2.6514907567873 2.3204018964714 2.2505567793067 2.7106240215072 2.6097597347912 1.971269103397 1.3250803679015 2.244030308225 2.3085024702878 2.1262732301241 2.8267384980875 2.0496274237287 2.0145565383063 2.5285718454082 2.740327407997 2.4192861061481 2.2974379026611 2.3974461958205 2.3386140774607 2.1464541703056 2.4601206896186 2.1542363904025 2.3439630392814 2.4891196447517 3.2114295010181 2.1522756950701 1.985288271891 1.9349272622881 2.1670826170143 2.0976459472552 1.9380358977735 2.1720866742733 2.2372378826214 2.2920248657832 2.0369751492214 1.9724229757243 2.5125110409044 2.417029104428 2.5959365726428 2.2934268065284 1.8204920086358 2.3878007187901 1.7028082684409 1.5961014648195 1.8663974851734 2.3291273109691 2.7082732468558 1.9761350329629 2.7241200595858 2.1168156820368 2.1641002072281 1.9722793726941 2.2735964176981 1.9765605244842 2.5197389076214 1.9024938524704 2.2479884572518 2.0592639686938 1.6531523167112 2.0968742875248 2.1466190714804 2.2457986957899 2.1995540121578 2.2728382700941 2.0559260641081 2.3666863988529 2.768962147565 2.0223361982745 2.2804137565625 2.2018770402379 2.167388917277 2.3315598330384 2.1012964332789 2.1010557864709 2.6634315305653 2.4289424881454 2.1452499098662 2.8666822023068 1.5706536472725 2.0156064052253 2.6865975647379 2.0762799085741 2.2881599419099 1.290068285201 2.0407252167448 2.76139851371 2.1641277203998 1.8341486324347 1.9074295407954 2.2791299283073 2.124129852325 1.8702235301678 2.1435095863835 1.9450653448527 2.0928604943549 1.9392162330806 2.3121550907213 2.0454061480653 1.9064230200363 2.1187449498248 2.0667041320239 2.1257743781373 2.0009271926011 2.0274971705806 2.9042292189704 1.9908583762328 2.1228806657817 2.3060438548721 2.145771097559 1.99002442246 2.2064692194169 1.7390210666144 1.9252460759137 1.8071026040366 1.8881284111455 2.0408006482937 2.7133048444107 2.3053290402371 1.9679281222041 1.7327897681262 2.3645470485905 2.0528242025999 1.3561541637715 1.8198641725766 0.62518297862521 0.77838209213618 1.9839072309749 1.935444609622 1.8223666548556 1.4083535127629 2.1098203560147 0.90207945022327 2.520281822403 2.6823088729728 1.9346007891271 1.4472639242096 1.2340092145284 1.8295814081264 2.5093798580446 1.6433211691317 1.808976935508 1.8307712523388 2.4262330838869 1.793748021507 1.856543825856 1.9857210116086 1.6688379657818 2.1276396024006 1.9150341300652 2.0692936385985 2.0209219129864 2.0769064200398 1.8709712636062 1.6228503938712 1.9941535043903 2.2648147820199 1.5648397514294 2.4662541427157 2.6048286121601 2.4618307391476 1.8634595455507 2.2989409192095 1.6400666602072 1.6124555175007 1.7099901593685 1.6667633642097 1.8949129683968 2.08595312155 2.1256434952496 2.911759275696 1.7247807884134 1.6811621444779 1.5437168254794 1.6101109845814 2.3781421451602 1.9350452657175 1.7583913476649 1.9427527718715 1.7152422001204 1.3937956014796 1.3722503924646 1.9448472817769 1.5809726399364 1.5004747574293 1.5710965488259 1.8180620975187 2.2135759018884 1.2779496058559 1.8548994106839 1.1919320276006 1.4585796523022 1.6125205066064 1.9710974274329 1.7237788466531 2.2062177068774 2.02103117598 1.9962526398515 2.0952731821985 1.684075809349 1.8569580423863 1.8647094237679 1.7324465894692 1.8347064230909 1.9289278920492 1.5168082033277 2.0090886705853 1.7538752618156 1.661153230058 1.7929618795698 1.8483884158523 1.8594540772545 1.1881213511346 1.9890281220346 1.6664726983652 1.768141578002 1.5100704541792 1.7834340706356 1.5152489937695 1.4758314014032 1.6588900621756 1.689872627997 1.5084553334472 1.70639741544 1.6034510985697 1.3640935988121 1.4933606136255 1.548671307117 1.2211451360066 1.6873959042622 1.314336165001 1.7205994087835 1.5471580374274 1.5853070911508 1.3008448882301 1.3786097001195 0.95506512516373 1.2319881229034 1.4296394706784 1.3089808752982 1.2184471955223 1.5081866378469 1.4120962483621 1.5719051168577 1.1348842317046 1.7322780201763 1.899232381218 2.0435015029615 1.678497309015 1.4581152021408 1.5169862214455 1.6074863509296 1.4517290300572 1.3520820263908 1.8733668603238 0.99018654804582 1.4996549269141 1.6276108977625 1.7761683371496 1.688158122782 1.57504302012 1.4745091218594 1.4526804892174 1.2465320716934 1.1297784446377 1.2900185178956 1.4753470434426 1.3550538618508 1.4856144261577 1.1532638884453 1.7764159715743 1.4286007540538 1.6994780000488 1.7674981762597 1.3526043805071 1.3330991215744 1.6071928259329 1.6150928310405 1.3110172943703 1.4364469424125 1.3607311505576 1.4866198119121 1.3258027599959 0.79691953439589 1.25781597156 1.5389396171869 1.2807311442773 1.068724435216 1.4726716722284 1.3341348233271 1.2783614664438 1.1777022369065 1.481253655767 1.0887483534638 1.2262324463523 1.2496909049951 1.2495093039022 1.06962886387 1.1788070176057 0.74104886134669 0.93942286465318 1.0671882109403 0.9275810974017 1.2835138969442 1.3531412339786 1.2540101801486 1.015686603963 0.79063191649644 1.0766722552712 1.1138938111243 1.6096022156181 1.2568787752131 1.1232657338945 1.0067178687641 1.1902641177886 1.035241113159 1.2519542243738 0.48007862933842 1.1360326399522 1.5045773537736 0.94049346313538 1.124823411977 0.75634928400833 0.81810473571143 1.0410341540018 1.2613897967079 0.92154486832017 0.95972848244585 0.9649602952389 0.6629912666982 0.94858192857104 0.49989480379422 0.4244929202293 0.48108262672859 0.63206843490453 0.81042340595021 0.85988700479593 0.84801070293133 0.74945573573816 0.79600760717989 0.87454476157147 0.88334964103643 0.41426556196776 0.75514114849162 0.94934310401356 1.6585485050914 1.6562542841782 1.1933801220871 1.3720617234436 1.1160782466768 1.2261270083474 1.1905594734411 0.68644886183903 0.79296697944626 0.65300189968197 0.66268478813388 0.67314748117634 0.7838767605674 1.0654412030508 0.68722566955497 0.62804007603294 0.75353220024155 0.85003530610214 0.56302470466872 0.54175012762714 0.78600045261719 1.449638109086 0.80168575557485 1.429583484487 1.1797131831556 1.477345439966 1.5268384205468 1.409456744658 1.3699102435635 1.1843388140152 1.2952911614672 1.2937414052387 0.84478936829035 0.70574026097882 0.52252386472177 0.42688239786463 0.4218061578583 0.88741287326883 1.1581947265486 1.081614943091 1.3755620107023 0.81835134206092 0.90751074180101 1.0020101228591 1.3218307846002 1.0393690104976 1.2745396292042 1.1325334766558 0.95178645667196 0.81261124473079 0.72241856666001 0.54782924890785 0.78699775579937 0.44860380526928 1.0767427759725 1.085293102379 1.4668527934068 1.1849299912703 1.2845422422049 1.2655827034935 1.5076757669306 1.0850623459896 1.0166767680777 0.65052578966521 0.98120906079119 0.91818216791214 0.98382137202066 0.94940126076221 1.1152997082504 0.52121508749525 0.63889960196527 0.70926858643078 0.57306229514288 0.83020933267143 0.49840068984054 0.58956535442945 0.85765705223479 0.948063415383 1.0842850935744 0.70414573577082 1.192417442751 0.7847155338322 1.3685002456948 1.0185593712461 0.78648460056803 1.1546161686612 0.95343850793796 1.10244909761 1.0581608748618 0.49452694255251 0.4029736911329 1.0677027604959 0.71151377028712 0.77926000076189 0.66467243628241 0.70486532280808 1.1528667150479 0.54920676618507 0.7011235169806 0.88081505451978 0.75558332893038 1.0126390966474 0.93791915187883 0.6289244817589 0.51997919640007 1.1479475477612 1.0776513049417 1.2189018223784 0.91803178764611 0.97010478949621 1.0632126411331 0.988902748391 0.81648755800998 0.88928623492079 0.98592019364412 0.60816920347978 0.43145008303914 0.86298808506841 0.55952054297203 0.81740694907351 0.82916021682997 0.38017284181516 0.49513292823049 0.54398347801189 0.61577332481061 0.89975729309382 1.003043981229 0.81176729228045 0.50254286112461 0.91167381644001 0.4894066885326 0.4824066230033 1.0864521263271 0.57652626595024 1.3784072224032 1.2091673623917 0.77435602601469 0.82625279315937 0.55460920028934 1.1829550762118 0.67507362888796 0.61555455177476 1.6726525005048 1.3445109166971 0.65620717610055 0.8081606142753 0.74616400210793 0.54555444354002 0.50279797068658 0.54942267759378 0.45824663648606 0.59898471191256 0.45455845888783 0.5191099575718 0.57750907982646 0.77389220324329 0.64222020665378 0.57644172297769 0.45766605426307 0.70639572231496 0.49849581729646 1.6482447291388 1.3252068680976 1.1717293052586 1.0631061513568 0.51848339227526 0.57277042293749 0.65376897669761 0.49038091796851 0.47422105676508 0.62902142119771 0.99563952247523 0.77146570950792 0.73535265983231 0.61629122884232 0.4605288752429 1.1810046498625 0.87201253601856 0.61076594265044 0.47446623037873 0.65717566347462 0.51864363998551 0.5463165999667 0.46241656545199 0.48231761000382 0.620626480797 0.77719202297015 1.1676785519106 0.68983003284437 0.6384687518398 0.73352787707422 0.83553186201546 0.7634242646981 0.45916367704875 0.69491090689872 0.83848349249206 0.90028400179622 0.93946325532076 1.0091437859267 0.95264457329054 0.85268251262992 0.79051944183304 0.91139766329109 0.66772133204471 0.70758194491737 0.64258169489878 0.89263754921663 0.49864603832435 1.1460778671587 0.84638698815125 1.29462584662 1.1547120394955 0.76705701603206 0.72489229459237 0.76305350372403 0.59587070626592 0.68797101748612 0.45739519545722 0.92166874868286 0.68656661421176 0.78568243444734 0.91950167948407 0.82883791859055 1.1641619115485 0.70314159081958 0.74428680477102 0.82845154881491 0.80157046724542 0.68698690895166 0.51550172182105 0.58454319674997 0.94372115772052 0.73770819708837 0.98530404899141 1.0758343709524 1.0707106169723 1.4654435757212 0.45837924551248 0.60566782775843 0.94717898026796 1.0891912069341 1.5610639768994 1.4314213362745 0.86976565041423 0.75173539944164 1.8033936729158 1.6232554373805 1.3535298697389 1.5121155400221 1.3083143808837 0.74476225879905 1.5862678599471 1.3282491932714 1.1852837960036 1.2744825085717 1.1156840443348 0.86256234259626 0.94238763187141 1.101443894821 0.92719070465839 0.93741949737394 0.85714395632267 1.2342629384013 1.5007678366154 2.0175576589553 1.7116959066672 1.4554861065181 1.2338867050086 1.1244616086168 0.71650012536373 1.219785759642 1.0139007755269 1.3013812135296 1.0208236292787 1.0041292092762 0.8466937889353 1.1649907774373 0.80382001156422 0.7743163154687 1.1013601365292 1.9681729068709 1.8371845558628 1.9610270893092 1.5897786133163 1.0697573201698 1.3093656802524 1.4436701455681 1.3766280782976 1.323288819205 1.2797077215651 1.2877244494614 1.4188264772268 1.1598112926175 0.95767305377463 1.8124481350178 1.6258676104735 0.71130350926244 0.41599953349062 0.5693882643144 0.47904078381719 1.2401886094761 1.4802096418154 0.52637312363491 0.44955861581587 0.52385848544