# vtk DataFile Version 3.0
d-2__ created by libgimli-v1.5.0-1-g5991b6ac
ASCII
DATASET UNSTRUCTURED_GRID
POINTS 257 double
25.5	-0.25	0
25.643267391024	-0.375	0
25.690940791558	-0.19094079155751	0
28.625	-0.27380702240065	0
28.625	-0.13804348840204	0
28.518663902413	-0.18940103023301	0
28.458333333333	-0.087886572211468	0
28.416666666667	0	0
28.375	-0.13804348840204	0
28.291666666667	-0.087886572211468	0
28.333333333333	0	0
28.25	0	0
26.083333333333	0	0
26.041666666667	-0.13804348840203	0
26.125	-0.087886572211466	0
26.166666666667	0	0
26	0	0
26.708333333333	-0.13804348840203	0
26.666666666667	0	0
26.625	-0.087886572211466	0
26.208333333333	-0.07357428207177	0
26.75	0	0
26.791666666667	-0.087886572211464	0
26.333333333333	0	0
26.25	0	0
26.291666666667	-0.087886572211468	0
27.166666666667	0	0
27.208333333333	-0.07357428207177	0
27.25	0	0
26.416666666667	0	0
26.375	-0.13804348840204	0
26.458333333333	-0.087886572211468	0
27.291666666667	-0.087886572211468	0
27.333333333333	0	0
27.625	-0.13804348840204	0
27.518663902413	-0.18940103023301	0
27.625	-0.27380702240065	0
26.583333333333	0	0
28.916666666667	0	0
28.833333333333	0	0
28.875	-0.13804348840204	0
26.833333333333	0	0
26.875	-0.07357428207177	0
29.98747163413	-0.5056358037932	0
30.050519698408	-0.25547676721966	0
29.843533331918	-0.29816134131379	0
29.458333333333	-0.087886572211464	0
29.404607252882	-0.15094638411797	0
29.541666666667	-0.13804348840203	0
26.5	0	0
27.791666666667	-0.087886572211468	0
27.833333333333	0	0
27.75	0	0
27.231336097587	-0.18940103023302	0
27.125	-0.13804348840204	0
25.705488373266	-0.59091608366499	0
26.007921013115	-0.8717186506847	0
25.91135296792	-0.47048281487414	0
30.166666666667	0	0
30.208333333333	-0.087886572211464	0
30.25	0	0
27	0	0
26.916666666667	0	0
26.958333333333	-0.13804348840203	0
30.791666666667	-0.087886572211468	0
30.833333333333	0	0
30.75	0	0
27.041666666667	-0.087886572211464	0
27.083333333333	0	0
30.083333333333	0	0
30.125	-0.07357428207177	0
28.541666666667	-0.073574282071767	0
27.375	-0.13804348840204	0
27.416666666667	0	0
27.5	0	0
27.458333333333	-0.087886572211468	0
28.583333333333	0	0
28.666666666667	0	0
28.226291378505	-0.21877391554365	0
28.432011579996	-0.40775209656411	0
30.148002764253	-0.18940103023303	0
30.208717134119	-0.38392172835888	0
30.291666666667	-0.13804348840203	0
28.208333333333	-0.07357428207177	0
28.166666666667	0	0
28.125	-0.072182208352023	0
27.875	-0.13804348840204	0
26.237940586216	-0.15094638411797	0
27.916666666667	0	0
27.708333333333	-0.07357428207177	0
28.083333333333	0	0
28	0	0
28.041666666667	-0.13804348840203	0
26.190375288162	-0.21877391554366	0
27.958333333333	-0.087886572211464	0
26.541666666667	-0.073574282071767	0
26.571273919549	-0.15094638411796	0
26.317063962986	-0.25702488420529	0
27.541666666667	-0.073574282071767	0
28.5	0	0
29.583333333333	0	0
29.625	-0.087886572211466	0
28.791666666667	-0.087886572211468	0
26.203594889612	-0.40391444725954	0
27.583333333333	0	0
27.666666666667	0	0
28.75	0	0
28.958333333333	-0.087886572211464	0
29	0	0
29.041666666667	-0.13804348840203	0
28.708333333333	-0.07357428207177	0
29.083333333333	0	0
29.125	-0.087886572211466	0
29.166666666667	0	0
29.208333333333	-0.13804348840203	0
29.25	0	0
28.165334880767	-0.15260258505374	0
29.291666666667	-0.087886572211464	0
27.731336097587	-0.18940103023302	0
29.5	0	0
29.416666666667	0	0
29.333333333333	0	0
29.375	-0.07357428207177	0
29.666666666667	0	0
28.086941669094	-0.2859797646022	0
27.958333333333	-0.18219221742147	0
29.125	-0.18219221742148	0
29.228873378537	-0.27753669533404	0
29.708333333333	-0.07357428207177	0
29.041666666667	-0.23876614697008	0
28.958333333333	-0.18219221742147	0
29.833333333333	0	0
29.875	-0.13804348840204	0
29.916666666667	0	0
29.791666666667	-0.087886572211468	0
29.75	0	0
29.958333333333	-0.087886572211464	0
30	0	0
29.483730629652	-0.25702488420531	0
30.333333333333	0	0
30.375	-0.087886572211466	0
29.369620976373	-0.40603607246707	0
29.604159114629	-0.34842263547806	0
31.124752694808	-0.11296503030675	0
31	0	0
30.958333333333	-0.087886572211468	0
30.041666666667	-0.13804348840203	0
30.416666666667	0	0
30.458333333333	-0.07357428207177	0
30.875	-0.13804348840204	0
30.583333333333	0	0
30.541666666667	-0.13804348840203	0
30.625	-0.087886572211466	0
30.5	0	0
30.43533056908	-0.18940103023302	0
30.916666666667	0	0
30.385963434616	-0.36114994877356	0
30.708333333333	-0.07357428207177	0
30.666666666667	0	0
29.636111778917	-0.20065391017952	0
30.999752694808	-0.25100851870879	0
28.731336097587	-0.18940103023302	0
26.851997235747	-0.18940103023303	0
30.737940586216	-0.15094638411797	0
26.523708621495	-0.21877391554365	0
27.133853031742	-0.25547676721968	0
26.949480301592	-0.25547676721966	0
27.041666666667	-0.52911283384145	0
27.041666666667	-0.18219221742147	0
29.357041954828	-0.21877391554366	0
29.737940586216	-0.15094638411797	0
30.690375288162	-0.21877391554366	0
29.958333333333	-0.18219221742147	0
25.875	-0.11303967622539	0
25.75	0	0
26.650397296319	-0.25702488420526	0
27.292050467453	-0.38392172835888	0
27.414390113348	-0.63321254312708	0
27.469144028345	-0.36097200963104	0
27.848127708251	-0.28948918465343	0
28.848127708251	-0.28948918465343	0
28.726596951268	-0.4234584073117	0
29.731548923005	-0.26700761442393	0
30.817063962986	-0.25702488420529	0
26.031958747178	-0.33325463579056	0
26.523689393121	-0.44776195923934	0
29.184065504659	-0.43422319923747	0
29.545209981036	-0.61464357222601	0
30.552290248164	-0.29580321144285	0
31.25	0	0
26.800529041383	-0.37028063139366	0
29.130694908432	-0.28024272799092	0
28.907115884997	-0.43487734236883	0
31.5	-0.5	0
31.5	-0.25	0
31.356886217184	-0.375	0
31.308843572405	-0.19115642759521	0
31.5	0	0
27.681768476189	-0.55823447719905	0
29.041897355025	-0.3545575021244	0
28.950100433703	-0.28398118611486	0
29.746371622197	-0.43057135368151	0
29.045779100149	-0.5143168838031	0
27.615347366628	-0.83560735755964	0
27.971649595913	-0.56775148091581	0
28.235269600634	-0.41546210057925	0
28.346412380513	-0.73751448832674	0
28.007726950717	-0.98664640296265	0
26.322202955504	-0.72835150504623	0
29.798122080496	-0.68908130839227	0
30.703430397599	-0.40445925111313	0
30.914859484231	-0.44990795630246	0
29.247599241801	-0.70334449364573	0
31.053928463665	-0.58159990549132	0
31.221377875989	-0.67457110982012	0
31.225195424337	-0.49586438948828	0
30.530720924191	-0.4852517756918	0
30.323984230706	-0.57992151527177	0
25.84485407481	-1.2957460393421	0
25.743909551686	-0.8528010586154	0
30.746070739038	-0.72060716412098	0
29.604860290622	-0.8788438191921	0
29.043947453281	-1.1807973577914	0
29.54268225478	-1.3246684327942	0
29.849430697053	-0.99522786547226	0
30.043693421774	-0.75311160759413	0
28.849047319116	-0.69970565535729	0
31.000856094841	-0.87446921301307	0
31.5	-1	0
25.845623228308	-0.30002188546398	0
30.512369350266	-0.71824350459	0
30	-1.6666666666667	0
30.051778272566	-1.3024535658708	0
25.5	0	0
27.680522574649	-1.2514855461386	0
27.375	-1.6666666666667	0
27.75	-1.6666666666667	0
31.174325422113	-0.32450830281231	0
25.5	-0.5	0
26.747329141204	-0.71351083399284	0
25.5	-0.75	0
26.348572023727	-1.2023161679924	0
27.179597305363	-1.0673000334922	0
29.25	-1.6666666666667	0
25.5	-1	0
30.75	-1.6666666666667	0
31.013091550828	-1.3141602648437	0
30.625304590967	-1.106556793762	0
30.375	-1.6666666666667	0
30.189043391347	-0.96114657873573	0
28.064690440023	-1.391571216678	0
28.426745644615	-1.201505510398	0
25.5	-1.6666666666667	0
27	-1.6666666666667	0
26.25	-1.6666666666667	0
28.5	-1.6666666666667	0
31.5	-1.6666666666667	0
CELLS 429 1716
3	0	1	2	
3	3	4	5	
3	6	7	8	
3	9	10	11	
3	12	13	14	
3	14	15	12	
3	16	13	12	
3	17	18	19	
3	20	15	14	
3	7	10	8	
3	21	17	22	
3	23	24	25	
3	26	27	28	
3	29	30	31	
3	23	30	29	
3	28	32	33	
3	34	35	36	
3	19	18	37	
3	38	39	40	
3	22	41	21	
3	41	22	42	
3	43	44	45	
3	18	17	21	
3	46	47	48	
3	31	49	29	
3	50	51	52	
3	53	27	54	
3	55	56	57	
3	58	59	60	
3	61	62	63	
3	64	65	66	
3	67	68	61	
3	67	61	63	
3	69	70	58	
3	4	71	5	
3	72	73	33	
3	5	6	8	
3	74	73	75	
3	73	72	75	
3	76	4	77	
3	78	79	8	
3	80	81	82	
3	83	84	85	
3	50	86	51	
3	25	87	30	
3	86	88	51	
3	52	89	50	
3	90	91	92	
3	93	87	14	
3	94	92	91	
3	95	49	31	
3	9	8	10	
3	84	83	11	
3	19	95	96	
3	91	88	94	
3	25	30	23	
3	9	11	83	
3	97	30	87	
3	98	74	75	
3	99	71	76	
3	100	48	101	
3	33	32	72	
3	99	7	6	
3	41	42	62	
3	102	40	39	
3	71	99	6	
3	97	93	103	
3	104	34	105	
3	39	106	102	
3	74	98	104	
3	38	107	108	
3	107	109	108	
3	35	75	72	
3	106	110	102	
3	34	98	35	
3	28	27	32	
3	111	112	113	
3	109	111	108	
3	59	82	60	
3	113	114	115	
3	116	9	83	
3	114	117	115	
3	50	89	118	
3	119	120	46	
3	119	48	100	
3	110	106	77	
3	120	121	122	
3	89	52	105	
3	101	123	100	
3	124	92	125	
3	54	26	68	
3	114	126	127	
3	101	128	123	
3	129	109	130	
3	131	132	133	
3	134	131	135	
3	48	119	46	
3	115	117	121	
3	136	137	133	
3	47	138	48	
3	60	82	139	
3	82	140	139	
3	141	142	138	
3	143	144	145	
3	122	47	46	
3	146	137	136	
3	113	112	114	
3	134	132	131	
3	147	140	148	
3	149	65	64	
3	150	151	152	
3	150	153	151	
3	148	154	151	
3	147	148	153	
3	65	149	155	
3	59	58	70	
3	155	145	144	
3	82	81	156	
3	145	155	149	
3	146	69	137	
3	157	158	152	
3	154	140	82	
3	147	139	140	
3	101	48	159	
3	149	160	145	
3	102	110	161	
3	150	152	158	
3	42	22	162	
3	157	163	64	
3	5	71	6	
3	4	76	71	
3	85	84	90	
3	116	83	85	
3	96	31	164	
3	49	95	37	
3	15	20	24	
3	25	20	87	
3	14	13	93	
3	25	24	20	
3	165	166	167	
3	63	168	67	
3	54	68	67	
3	17	162	22	
3	63	62	42	
3	35	98	75	
3	34	104	98	
3	26	54	27	
3	63	42	162	
3	88	86	94	
3	125	94	86	
3	105	34	89	
3	118	89	34	
3	77	4	110	
3	161	110	4	
3	111	109	112	
3	126	112	109	
3	47	117	169	
3	120	122	46	
3	38	40	107	
3	130	107	40	
3	121	117	122	
3	117	114	169	
3	80	70	146	
3	123	128	135	
3	134	128	170	
3	159	48	138	
3	134	135	128	
3	163	152	171	
3	158	157	66	
3	154	148	140	
3	151	153	148	
3	69	146	70	
3	172	44	146	
3	9	78	8	
3	161	40	102	
3	90	92	85	
3	116	78	9	
3	92	94	125	
3	5	79	3	
3	164	31	30	
3	19	37	95	
3	173	16	174	
3	164	175	96	
3	17	19	96	
3	53	165	176	
3	53	32	27	
3	118	86	50	
3	175	17	96	
3	176	177	178	
3	118	36	179	
3	78	116	124	
3	180	3	181	
3	169	114	127	
3	114	112	126	
3	134	170	132	
3	133	132	136	
3	44	80	146	
3	146	136	172	
3	82	59	80	
3	152	151	171	
3	64	66	157	
3	80	59	70	
3	64	163	149	
3	170	101	159	
3	136	132	172	
3	85	92	116	
3	124	116	92	
3	97	164	30	
3	166	168	63	
3	14	87	20	
3	87	93	97	
3	117	47	122	
3	47	169	138	
3	101	170	128	
3	142	182	159	
3	132	45	172	
3	149	163	183	
3	31	96	95	
3	162	166	63	
3	184	93	13	
3	97	185	164	
3	156	154	82	
3	141	127	186	
3	142	141	187	
3	44	172	45	
3	152	163	157	
3	163	171	183	
3	103	93	184	
3	53	72	32	
3	154	188	151	
3	189	144	143	
3	185	175	164	
3	175	190	162	
3	118	179	86	
3	125	179	124	
3	109	107	130	
3	126	129	191	
3	161	180	40	
3	127	126	191	
3	169	141	138	
3	141	169	127	
3	125	86	179	
3	180	181	192	
3	193	194	195	
3	196	194	197	
3	149	183	160	
3	143	145	160	
3	167	176	165	
3	162	17	175	
3	198	178	177	
3	72	53	176	
3	118	34	36	
3	185	97	103	
3	126	109	129	
3	186	191	199	
3	180	130	40	
3	130	180	200	
3	161	4	3	
3	129	199	191	
3	138	142	159	
3	45	182	201	
3	130	200	129	
3	192	202	199	
3	202	186	199	
3	129	200	199	
3	142	187	201	
3	191	186	127	
3	180	192	200	
3	199	200	192	
3	180	161	3	
3	142	201	182	
3	54	67	168	
3	203	204	198	
3	79	5	8	
3	78	124	205	
3	182	170	159	
3	151	188	171	
3	185	190	175	
3	204	206	205	
3	201	43	45	
3	43	81	44	
3	207	206	204	
3	57	56	208	
3	44	81	80	
3	209	201	187	
3	35	72	178	
3	57	208	103	
3	13	16	173	
3	183	210	211	
3	141	212	187	
3	45	170	182	
3	213	214	215	
3	205	79	78	
3	216	156	217	
3	45	132	170	
3	196	197	189	
3	218	56	219	
3	178	198	36	
3	188	156	216	
3	220	211	210	
3	57	103	184	
3	204	179	198	
3	165	53	54	
3	221	222	223	
3	209	224	225	
3	43	217	81	
3	226	212	202	
3	214	227	228	
3	211	160	183	
3	210	171	188	
3	226	192	181	
3	193	215	214	
3	3	79	181	
3	205	206	79	
3	186	212	141	
3	212	186	202	
3	173	229	13	
3	167	177	176	
3	72	176	178	
3	206	226	181	
3	213	227	214	
3	217	230	216	
3	196	195	194	
3	231	232	223	
3	227	213	220	
3	206	181	79	
3	187	212	221	
3	173	174	2	
3	13	229	184	
3	174	233	2	
3	234	235	236	
3	196	189	143	
3	233	0	2	
3	160	237	143	
3	237	195	196	
3	1	0	238	
3	173	2	229	
3	177	203	198	
3	198	179	36	
3	239	190	185	
3	35	178	36	
3	192	226	202	
3	195	215	193	
3	188	216	210	
3	220	210	216	
3	213	237	211	
3	154	156	188	
3	124	179	204	
3	221	212	222	
3	240	219	55	
3	54	168	165	
3	196	143	237	
3	195	237	215	
3	55	1	238	
3	167	166	190	
3	2	1	229	
3	1	55	57	
3	190	166	162	
3	204	205	124	
3	241	208	56	
3	242	167	239	
3	223	222	243	
3	156	81	217	
3	160	211	237	
3	213	215	237	
3	183	171	210	
3	228	193	214	
3	219	244	218	
3	56	55	219	
3	184	229	57	
3	57	229	1	
3	220	213	211	
3	245	246	247	
3	230	220	216	
3	220	247	227	
3	248	247	232	
3	228	227	246	
3	55	238	240	
3	249	230	217	
3	247	249	232	
3	166	165	168	
3	221	209	187	
3	43	225	217	
3	209	43	201	
3	247	246	227	
3	190	239	167	
3	207	204	203	
3	208	185	103	
3	242	203	177	
3	207	250	251	
3	240	244	219	
3	252	218	244	
3	224	209	221	
3	217	225	249	
3	43	209	225	
3	241	242	239	
3	167	242	177	
3	253	242	241	
3	56	218	241	
3	212	226	222	
3	249	225	224	
3	234	250	207	
3	239	185	208	
3	231	223	243	
3	224	232	249	
3	252	254	218	
3	241	218	254	
3	253	241	254	
3	239	208	241	
3	206	207	251	
3	224	221	223	
3	223	232	224	
3	248	245	247	
3	234	207	203	
3	250	255	251	
3	251	226	206	
3	255	243	222	
3	249	247	230	
3	220	230	247	
3	203	242	234	
3	235	242	253	
3	255	222	251	
3	226	251	222	
3	232	231	248	
3	245	256	246	
3	228	246	256	
3	242	235	234	
3	234	236	250	
3	255	250	236	
CELL_TYPES 429
5 5 5 5 5 5 5 5 5 5 5 5 5 5 5 5 5 5 5 5 5 5 5 5 5 5 5 5 5 5 5 5 5 5 5 5 5 5 5 5 5 5 5 5 5 5 5 5 5 5 5 5 5 5 5 5 5 5 5 5 5 5 5 5 5 5 5 5 5 5 5 5 5 5 5 5 5 5 5 5 5 5 5 5 5 5 5 5 5 5 5 5 5 5 5 5 5 5 5 5 5 5 5 5 5 5 5 5 5 5 5 5 5 5 5 5 5 5 5 5 5 5 5 5 5 5 5 5 5 5 5 5 5 5 5 5 5 5 5 5 5 5 5 5 5 5 5 5 5 5 5 5 5 5 5 5 5 5 5 5 5 5 5 5 5 5 5 5 5 5 5 5 5 5 5 5 5 5 5 5 5 5 5 5 5 5 5 5 5 5 5 5 5 5 5 5 5 5 5 5 5 5 5 5 5 5 5 5 5 5 5 5 5 5 5 5 5 5 5 5 5 5 5 5 5 5 5 5 5 5 5 5 5 5 5 5 5 5 5 5 5 5 5 5 5 5 5 5 5 5 5 5 5 5 5 5 5 5 5 5 5 5 5 5 5 5 5 5 5 5 5 5 5 5 5 5 5 5 5 5 5 5 5 5 5 5 5 5 5 5 5 5 5 5 5 5 5 5 5 5 5 5 5 5 5 5 5 5 5 5 5 5 5 5 5 5 5 5 5 5 5 5 5 5 5 5 5 5 5 5 5 5 5 5 5 5 5 5 5 5 5 5 5 5 5 5 5 5 5 5 5 5 5 5 5 5 5 5 5 5 5 5 5 5 5 5 5 5 5 5 5 5 5 5 5 5 5 5 5 5 5 5 5 5 5 5 5 5 5 5 5 5 5 5 5 5 5 5 5 5 5 5 5 5 5 5 5 5 5 5 5 5 5 5 5 5 5 5 5 5 5 5 5 5 5 5 5 5 5 
CELL_DATA 429
SCALARS Coverage double 1
LOOKUP_TABLE default
1.6392256890535 2.5549813249522 3.0703227558061 3.2469405715471 2.5470919676386 2.8579920406221 3.0012609354045 2.8081059325077 2.7257052125973 3.1607297869085 2.8374889553832 3.0950990348747 3.3218843753665 2.8562116426166 2.9106056614682 3.3385089773724 2.5432747080377 3.0033625087166 3.1386857205477 3.3148041171083 2.9979033424202 2.2371569946491 3.2539706286463 2.5981733076156 3.2746160124323 3.4393782534729 2.634694074753 1.3619199006898 3.1016548267317 3.3819425084636 2.8064164722619 3.4929425686057 2.9784263855087 2.9927165709774 2.7412729969871 3.0761530817195 2.8254115587357 3.0784515648888 2.8061799295792 3.1436035942882 2.4418388557286 2.3444117405992 3.0229521848773 3.0259825378409 2.5100622951939 3.1466341982661 3.0458848799899 3.4271578898713 2.420786931389 2.8893972742743 2.7997009113706 2.9436524941453 3.2858014514105 2.6824029622825 3.4036412016933 2.6999032668458 2.8810686695124 2.3407727211308 2.6964467711119 3.3348794207299 2.9105474410389 3.0325763591027 3.3847949641167 3.1225975286809 3.0024622126004 2.914345831398 2.0446786113625 3.1550818812694 3.4090824042549 3.1442651595483 3.5212366426451 3.0416867466564 2.7007440771766 3.0830129085572 2.7289872081982 3.011628332081 3.1683695723653 3.4493944145138 2.6345122155298 3.2219543679203 2.7883425324605 3.2643745009859 2.8587968119544 3.1457837350415 3.1880544909213 3.4998522300905 3.0528554245746 3.4499565174241 3.0904830185521 2.6299169484031 2.9971088328311 2.6053435988817 3.0357838054355 2.6792509001425 3.0482234892849 3.3593724428927 2.6622104427519 3.4198450940695 3.3599828653446 2.5539225758268 3.0861699309208 2.7576973021838 2.2651978427506 2.1490163322241 2.7867343696493 2.8680125137146 2.9217656924707 2.9440175096431 2.8095543527896 2.4087161725687 2.5958819261345 3.0035814826439 2.4534568417191 3.089166547135 2.5196022281503 2.849234672724 2.721927481329 2.2102462788345 2.3123641779565 3.3706302752568 2.6030451655473 2.5356070409839 2.9196534749157 2.7300128790416 1.9558786869621 2.8902845191141 2.7308852053391 2.7526142635946 2.2706935533084 2.7863304567347 2.9783093283234 3.1028667262714 2.9360425704286 2.53078581167 3.2793220678214 3.0894141451276 2.5717588805385 2.3357434468016 2.7053485874694 2.2700678638814 2.7662609470085 2.9838748868676 2.6283192433694 2.9414249041896 2.6001587583358 2.8925984852782 2.9053833729384 2.69297300716 3.0023716619749 2.7642586804989 3.1070576628451 2.9180757179944 3.1496538620532 2.8806919935568 3.0318088920263 2.768673201136 2.8696997707283 2.9408846215753 3.0797763246256 2.8130569747685 3.0413300848229 2.8257700843935 2.7162924846311 3.3456063742597 2.7676918822196 2.5551195655395 3.0216120652606 2.2252243458913 2.854022481895 2.6540261031302 2.721126547948 2.9139598236511 2.5829672365042 2.7031194009708 2.7679468186014 3.0138825798828 2.6919782706507 2.7945280012421 2.3777048506223 2.5563733326417 2.9142789338153 2.7587228258797 2.3528741888557 2.5962377422259 2.3618668510037 2.7713451942918 2.7869571220658 2.4534321459322 2.0833859138432 2.5216069343684 2.5520423026243 2.3028130428685 2.6820361233367 2.7016506343958 2.712758489337 2.9268471181178 2.5495337660357 2.747989102592 2.5194822376841 2.3040944911059 2.36404171545 2.6577217374883 2.2392360649712 2.7687939733973 2.6980311639197 2.8690054099842 2.7116437197943 2.3421124262342 2.5790313237687 2.5586742984855 2.2471462844386 3.0195731841358 2.5398865964602 2.9945446766178 2.4144906225844 2.4934583009518 2.0255712751423 2.6913881328802 2.5399200541586 2.095859622789 2.1188116625882 2.3544737111576 2.2415217393165 2.0699715807725 2.4313401264844 2.3546496289899 1.9990079486443 1.9622532419241 2.9008780127893 2.2782444633017 2.4126239831693 2.158725775923 2.3085741953853 2.6180053863575 2.4843889727618 2.8532704276241 2.5026427416095 2.5733137049694 2.4890211375127 2.3783446173918 2.4212483059018 2.5824222210227 2.2194830581903 1.3466117425415 1.528388753536 1.9247859701499 2.012135109491 2.1867678852263 2.4549971737431 2.009325723129 2.613350410222 2.7069225512655 1.9440388720501 2.6018283340104 2.2785515155046 2.5992389985625 2.4767452181151 2.6516837407447 2.391957300117 2.3960290187486 2.2584853994836 2.5292199387126 2.1464898692038 2.1409891977136 2.4021743350966 2.054899918155 2.3336730840445 2.309889436227 2.2753793404256 2.4817417271164 2.2450288171022 2.7149286685066 1.8606345275583 2.5220674851488 2.351746642912 2.5912713705686 2.1128791167208 2.1002397343024 1.9641933980665 2.1294531896489 2.1401405358374 1.7141943363229 1.3633364476655 2.334252854205 1.8842389177722 2.4626195112099 1.615848813057 2.4998230028159 1.7323995998841 1.9107311896296 2.4395754502972 1.3277574929047 2.270945500149 1.8343883050696 2.5271669069319 1.6975648812855 0.99073630058221 2.1811637271145 1.9528527658992 1.5631454020766 1.7713558538285 2.1211606160724 2.4958320865742 1.2073603697397 1.530068366925 1.9347764683729 1.8475644007818 1.029793808975 1.7822166723618 1.9197193160799 2.0245526768253 1.2764545911072 2.2249993982541 2.0313716238297 2.0174820582107 1.9751145380444 2.140005672351 1.99039274727 2.3605608326652 1.8733808455575 1.2363248175032 1.6245041085631 1.4993412849654 0.829457459107 1.2645126309074 2.0218127634509 1.6937072382648 2.1215448286004 2.0384337769199 1.8896666682994 0.84941775050467 1.9009760733768 1.6900171736991 1.8332473173826 1.5912441466968 1.4635801799876 2.0069588605559 1.7972655654683 2.282943163275 1.8742693026678 2.3909771202465 1.982728355487 1.3318228222787 1.8143669993765 1.6061429998961 1.5376690462177 2.1496323470837 2.2608564345741 1.4826467503001 1.12860811621 2.5391440644175 1.8024706758897 1.5002268842469 1.3740551018805 2.1645175863177 1.7581166088522 1.4931054760297 2.3570589971814 2.1793872935761 1.1642970189714 1.602449308768 0.9578226579407 1.9567150826317 1.7111703046794 1.4615785223428 1.8684967885339 1.0727369026993 0.89468884433952 1.1489555993211 1.781370293069 1.6820962058329 1.4367987945414 0.74538509970425 1.4794691117763 1.1368623872708 0.78911996739219 0.89693439722428 1.2073887174539 1.4586722969644 1.0518988902361 2.4563127705577 1.6797005059693 1.7305502606943 1.918854515284 0.92028472633673 1.8987872402039 1.6673457510214 1.7039151696457 1.567313744288 1.2101197472975 0.97089707938909 0.6591763854535 1.4946991368899 1.5072148526658 1.7377493660596 1.2547509306575 1.6914094781884 0.94163550392688 0.94496867557889 1.5802939131773 1.3635050016917 1.1884084278367 1.6235979901536 0.77751312854047 1.1619955480263 0.59922934050502 0.75568347730749 0.71784876100669 1.3175072738062 1.4677928270995 1.2680876920977 1.0712576646452 0.66509571656281 1.3820195105449 0.99542944787723 1.5812152668139 0.87912535296453 1.2033530034898 1.2435459434553 1.3183836591934 0.87336753694904 1.0506439578383 1.3882988767025 0.67924610783229 0.57724900807053 0.62838453648955 1.0249560575813 0.9535229269129 0.86134504089745 
SCALARS Marker double 1
LOOKUP_TABLE default
0 1 2 3 4 5 6 7 8 9 10 11 12 13 14 15 16 17 18 19 20 21 22 23 24 25 26 27 28 29 30 31 32 33 34 35 36 37 38 39 40 41 42 43 44 45 46 47 48 49 50 51 52 53 54 55 56 57 58 59 60 61 62 63 64 65 66 67 68 69 70 71 72 73 74 75 76 77 78 79 80 81 82 83 84 85 86 87 88 89 90 91 92 93 94 95 96 97 98 99 100 101 102 103 104 105 106 107 108 109 110 111 112 113 114 115 116 117 118 119 120 121 122 123 124 125 126 127 128 129 130 131 132 133 134 135 136 137 138 139 140 141 142 143 144 145 146 147 148 149 150 151 152 153 154 155 156 157 158 159 160 161 162 163 164 165 166 167 168 169 170 171 172 173 174 175 176 177 178 179 180 181 182 183 184 185 186 187 188 189 190 191 192 193 194 195 196 197 198 199 200 201 202 203 204 205 206 207 208 209 210 211 212 213 214 215 216 217 218 219 220 221 222 223 224 225 226 227 228 229 230 231 232 233 234 235 236 237 238 239 240 241 242 243 244 245 246 247 248 249 250 251 252 253 254 255 256 257 258 259 260 261 262 263 264 265 266 267 268 269 270 271 272 273 274 275 276 277 278 279 280 281 282 283 284 285 286 287 288 289 290 291 292 293 294 295 296 297 298 299 300 301 302 303 304 305 306 307 308 309 310 311 312 313 314 315 316 317 318 319 320 321 322 323 324 325 326 327 328 329 330 331 332 333 334 335 336 337 338 339 340 341 342 343 344 345 346 347 348 349 350 351 352 353 354 355 356 357 358 359 360 361 362 363 364 365 366 367 368 369 370 371 372 373 374 375 376 377 378 379 380 381 382 383 384 385 386 387 388 389 390 391 392 393 394 395 396 397 398 399 400 401 402 403 404 405 406 407 408 409 410 411 412 413 414 415 416 417 418 419 420 421 422 423 424 425 426 427 428 
SCALARS Resistivity double 1
LOOKUP_TABLE default
151.57002122289 100.24463865196 103.46942472186 61.200575451819 132.54224589981 141.12484901365 134.35481186938 73.980308285694 125.57520867081 98.070176453453 78.834062671348 67.20560224618 35.143632622715 110.46854763622 92.804220672477 219.58627663963 83.584688354514 68.2511450196 66.983006736623 72.271787343307 74.98419018758 110.37411759545 76.9975092044 96.00861957754 122.29762277357 58.037570730923 66.737931637497 218.76634990169 67.580172089821 85.248844768954 71.995731402509 72.60622938963 88.209211389996 90.663279379356 78.347499655575 161.60090048591 97.218767468056 66.091826701013 86.55216998517 80.650928091307 100.88873312872 77.958898006835 94.729201933163 62.353057589371 89.135115502915 54.807454508858 94.325578848133 142.02083090171 111.70722761383 80.92200389124 96.654363726696 76.525990527896 86.651453354433 82.592261335334 53.505405991879 78.792132235867 67.318732045925 103.81329408846 56.31039685629 55.538704301762 124.38716766235 176.33252436048 105.27120368403 73.946282696999 67.842179980595 73.518254892142 126.78952289091 126.72701677599 59.56012269994 65.749236516473 93.239437728934 94.566171636904 67.557962245581 90.745029033633 71.284868374971 95.21961232966 54.692809944358 70.897502319336 68.965760151298 58.099803480911 71.334449879303 171.29124648628 94.162989527637 100.17195074918 115.39054751146 118.42530507435 182.91135281053 141.34841739409 160.27094604815 82.818939462874 41.114364096657 108.54505561036 157.21693704628 111.77481901565 43.029434744319 47.659042239421 92.452941930833 306.31431233747 47.224683371556 91.079687844036 83.803040051515 93.627792131246 106.97282299898 83.605566970969 122.58178076918 77.090750722443 62.061465368088 51.240730312895 104.87025468064 73.789944860621 49.722083081122 48.762777332797 84.263688532843 105.58632767658 80.58611141526 76.556202165418 85.155872924323 86.876763330326 82.093997098051 126.7341978245 48.445003857978 90.435477961273 106.41435971703 103.88303101087 81.129442975984 94.4777092635 45.815534554056 82.636463678493 60.519011787961 79.83992578911 66.175864332698 113.19687023817 83.067397888011 105.99328780107 71.787430219921 119.76551289393 92.404612606318 118.62186460622 87.658493561175 93.013582142952 85.409753268558 59.488516282529 84.13925258131 82.544341744295 59.121683612782 83.204453938504 41.213336323366 87.212329562034 59.030368481019 74.22747303309 131.97134593639 108.9847580965 100.52065144991 101.03894384294 68.238572059066 86.304892362107 131.78466589239 130.74573939119 83.496174130238 98.907150275073 217.10944667015 140.85902393435 85.74038357428 169.14390786561 97.157337635903 92.241740843097 98.632941107649 61.589984676671 48.09067811686 93.931527934813 79.276012339577 101.02277042291 86.140654024602 80.691005839915 89.694564591218 114.75496057397 74.798718959317 79.094686133641 120.73284273882 112.76265651426 71.81802011492 82.697461397923 104.81561066682 82.183803383491 89.642306082528 91.334369382391 82.047051785123 91.607186593033 111.83435793453 103.86755451597 83.503094727937 145.3734018574 121.41032024213 84.525718556178 76.699332687662 50.370406249839 86.176023511505 78.307460430118 71.175742944729 60.307391016996 58.964540172647 75.704626896228 68.201403202984 107.31267530276 70.033790182897 89.647595296858 82.577287122887 115.24917269431 88.738758510595 108.96061991168 112.86174610002 154.40457062045 104.08719161712 121.50292505229 103.6989566991 84.69897094722 71.974041730652 95.939541846517 91.141925944058 119.4980828296 126.8285708234 86.950879071844 129.62952320418 134.0348743016 94.227106968259 55.93472211418 70.904615136764 129.81770035333 119.81839544711 81.67604609308 86.308273164102 115.63636037197 96.831956013617 91.683184745408 92.571322706942 102.77370895129 118.61945213102 108.96865885645 118.6348539431 104.58857176121 114.47426402955 86.519912183358 158.88026896737 125.10754433071 112.36498012038 79.482218202306 84.822844925971 99.347132906744 89.814065951647 130.35244261705 96.118052207225 98.887152336208 139.90054341981 106.1886493965 137.17603951103 111.63232024983 126.6606049944 107.67458492362 129.88302285219 97.057312877762 115.59446425955 124.22777341958 162.21322140553 156.29435240028 133.56976631193 139.37760981595 127.70145809326 144.09845831617 146.65901657771 121.7904576259 117.97832809337 74.586610718857 171.11028862817 109.30778746194 102.18024865501 103.25619348797 73.847644014418 113.96920346872 151.81821860455 129.03395478865 106.77660643369 205.78236133912 214.39576769849 88.1388761819 172.6004615175 74.962447141194 175.35526844123 96.724771833297 92.836104273602 167.19953500754 101.44303407652 143.60759515788 114.78167216827 116.8471455262 87.937383003341 105.74028990541 274.46157205667 112.28238317249 100.46383048136 111.57461464996 147.02634451741 134.21898047393 78.101680447546 341.14175173656 227.32363167039 125.32531492677 208.29878480688 173.65091480722 89.505454359629 83.830563426896 184.8725830438 145.40198209638 148.1723199056 145.00278233555 154.28294375345 171.34362593015 107.96019183874 122.45522069859 87.378528177153 208.89063284576 157.37099616697 147.74375610987 117.69155136738 349.46093988623 154.59432760649 168.84351688313 223.15545320271 105.93161313562 119.0596720151 123.23460627941 332.45221911118 97.934344975321 139.00629948382 94.909242241583 114.95907114191 173.77634042883 117.1556597458 166.85283187345 119.28420424365 135.61404047371 87.70871769434 185.20856597213 131.88036865577 99.391039925562 117.78464490373 117.78103020934 88.357239483422 112.29387103555 289.87834828909 246.71108118138 79.627229774042 102.34586888257 125.19182508388 195.2821493536 102.17442131641 141.32748769717 189.85437601024 95.561173268935 118.59291273584 242.72407105676 176.8855494592 388.55724756036 107.95475596158 99.674239359719 128.66071222007 81.513670131773 160.75210474681 285.94780435536 247.63950060645 139.94018169038 156.19767275162 126.99752300226 239.05003312299 146.77558461209 181.46986735177 292.58680596643 202.55369479432 221.73540290978 185.76533818098 263.15369333729 86.929143065949 216.91153106975 169.33876411268 163.16762448314 208.93698384863 131.79971429833 214.40751631648 164.55032532193 198.97654057026 311.09031638419 267.91080900969 307.85921233906 252.29866273173 198.1341835524 187.2400093714 242.14175537821 166.71428744777 309.62316764877 281.34035591962 276.7403635359 235.32937008119 308.15268874817 172.85241966634 385.26878652015 275.70948858101 318.49777731372 314.13685670363 326.66880375396 221.93873340845 262.1723945595 309.08928486751 318.42090851907 269.94516323372 264.94845070164 351.82640720177 266.2389818785 407.09047431986 210.64404811949 179.42708999993 262.93772639765 323.22276987671 370.61767291314 318.12040256569 325.65489756751 233.42854205936 221.13419776254 315.07979615061 336.5965989444 354.17313227845 
SCALARS Resistivity_(log10) double 1
LOOKUP_TABLE default