# vtk DataFile Version 3.0
d-2__ created by libgimli-v1.5.0-1-g5991b6ac
ASCII
DATASET UNSTRUCTURED_GRID
POINTS 10201 double
0	-10	0
0.5	-10	0
0.5	-9.9	0
0	-9.9	0
1	-10	0
1	-9.9	0
1.5	-10	0
1.5	-9.9	0
2	-10	0
2	-9.9	0
2.5	-10	0
2.5	-9.9	0
3	-10	0
3	-9.9	0
3.5	-10	0
3.5	-9.9	0
4	-10	0
4	-9.9	0
4.5	-10	0
4.5	-9.9	0
5	-10	0
5	-9.9	0
5.5	-10	0
5.5	-9.9	0
6	-10	0
6	-9.9	0
6.5	-10	0
6.5	-9.9	0
7	-10	0
7	-9.9	0
7.5	-10	0
7.5	-9.9	0
8	-10	0
8	-9.9	0
8.5	-10	0
8.5	-9.9	0
9	-10	0
9	-9.9	0
9.5	-10	0
9.5	-9.9	0
10	-10	0
10	-9.9	0
10.5	-10	0
10.5	-9.9	0
11	-10	0
11	-9.9	0
11.5	-10	0
11.5	-9.9	0
12	-10	0
12	-9.9	0
12.5	-10	0
12.5	-9.9	0
13	-10	0
13	-9.9	0
13.5	-10	0
13.5	-9.9	0
14	-10	0
14	-9.9	0
14.5	-10	0
14.5	-9.9	0
15	-10	0
15	-9.9	0
15.5	-10	0
15.5	-9.9	0
16	-10	0
16	-9.9	0
16.5	-10	0
16.5	-9.9	0
17	-10	0
17	-9.9	0
17.5	-10	0
17.5	-9.9	0
18	-10	0
18	-9.9	0
18.5	-10	0
18.5	-9.9	0
19	-10	0
19	-9.9	0
19.5	-10	0
19.5	-9.9	0
20	-10	0
20	-9.9	0
20.5	-10	0
20.5	-9.9	0
21	-10	0
21	-9.9	0
21.5	-10	0
21.5	-9.9	0
22	-10	0
22	-9.9	0
22.5	-10	0
22.5	-9.9	0
23	-10	0
23	-9.9	0
23.5	-10	0
23.5	-9.9	0
24	-10	0
24	-9.9	0
24.5	-10	0
24.5	-9.9	0
25	-10	0
25	-9.9	0
25.5	-10	0
25.5	-9.9	0
26	-10	0
26	-9.9	0
26.5	-10	0
26.5	-9.9	0
27	-10	0
27	-9.9	0
27.5	-10	0
27.5	-9.9	0
28	-10	0
28	-9.9	0
28.5	-10	0
28.5	-9.9	0
29	-10	0
29	-9.9	0
29.5	-10	0
29.5	-9.9	0
30	-10	0
30	-9.9	0
30.5	-10	0
30.5	-9.9	0
31	-10	0
31	-9.9	0
31.5	-10	0
31.5	-9.9	0
32	-10	0
32	-9.9	0
32.5	-10	0
32.5	-9.9	0
33	-10	0
33	-9.9	0
33.5	-10	0
33.5	-9.9	0
34	-10	0
34	-9.9	0
34.5	-10	0
34.5	-9.9	0
35	-10	0
35	-9.9	0
35.5	-10	0
35.5	-9.9	0
36	-10	0
36	-9.9	0
36.5	-10	0
36.5	-9.9	0
37	-10	0
37	-9.9	0
37.5	-10	0
37.5	-9.9	0
38	-10	0
38	-9.9	0
38.5	-10	0
38.5	-9.9	0
39	-10	0
39	-9.9	0
39.5	-10	0
39.5	-9.9	0
40	-10	0
40	-9.9	0
40.5	-10	0
40.5	-9.9	0
41	-10	0
41	-9.9	0
41.5	-10	0
41.5	-9.9	0
42	-10	0
42	-9.9	0
42.5	-10	0
42.5	-9.9	0
43	-10	0
43	-9.9	0
43.5	-10	0
43.5	-9.9	0
44	-10	0
44	-9.9	0
44.5	-10	0
44.5	-9.9	0
45	-10	0
45	-9.9	0
45.5	-10	0
45.5	-9.9	0
46	-10	0
46	-9.9	0
46.5	-10	0
46.5	-9.9	0
47	-10	0
47	-9.9	0
47.5	-10	0
47.5	-9.9	0
48	-10	0
48	-9.9	0
48.5	-10	0
48.5	-9.9	0
49	-10	0
49	-9.9	0
49.5	-10	0
49.5	-9.9	0
50	-10	0
50	-9.9	0
0.5	-9.8	0
0	-9.8	0
1	-9.8	0
1.5	-9.8	0
2	-9.8	0
2.5	-9.8	0
3	-9.8	0
3.5	-9.8	0
4	-9.8	0
4.5	-9.8	0
5	-9.8	0
5.5	-9.8	0
6	-9.8	0
6.5	-9.8	0
7	-9.8	0
7.5	-9.8	0
8	-9.8	0
8.5	-9.8	0
9	-9.8	0
9.5	-9.8	0
10	-9.8	0
10.5	-9.8	0
11	-9.8	0
11.5	-9.8	0
12	-9.8	0
12.5	-9.8	0
13	-9.8	0
13.5	-9.8	0
14	-9.8	0
14.5	-9.8	0
15	-9.8	0
15.5	-9.8	0
16	-9.8	0
16.5	-9.8	0
17	-9.8	0
17.5	-9.8	0
18	-9.8	0
18.5	-9.8	0
19	-9.8	0
19.5	-9.8	0
20	-9.8	0
20.5	-9.8	0
21	-9.8	0
21.5	-9.8	0
22	-9.8	0
22.5	-9.8	0
23	-9.8	0
23.5	-9.8	0
24	-9.8	0
24.5	-9.8	0
25	-9.8	0
25.5	-9.8	0
26	-9.8	0
26.5	-9.8	0
27	-9.8	0
27.5	-9.8	0
28	-9.8	0
28.5	-9.8	0
29	-9.8	0
29.5	-9.8	0
30	-9.8	0
30.5	-9.8	0
31	-9.8	0
31.5	-9.8	0
32	-9.8	0
32.5	-9.8	0
33	-9.8	0
33.5	-9.8	0
34	-9.8	0
34.5	-9.8	0
35	-9.8	0
35.5	-9.8	0
36	-9.8	0
36.5	-9.8	0
37	-9.8	0
37.5	-9.8	0
38	-9.8	0
38.5	-9.8	0
39	-9.8	0
39.5	-9.8	0
40	-9.8	0
40.5	-9.8	0
41	-9.8	0
41.5	-9.8	0
42	-9.8	0
42.5	-9.8	0
43	-9.8	0
43.5	-9.8	0
44	-9.8	0
44.5	-9.8	0
45	-9.8	0
45.5	-9.8	0
46	-9.8	0
46.5	-9.8	0
47	-9.8	0
47.5	-9.8	0
48	-9.8	0
48.5	-9.8	0
49	-9.8	0
49.5	-9.8	0
50	-9.8	0
0.5	-9.7	0
0	-9.7	0
1	-9.7	0
1.5	-9.7	0
2	-9.7	0
2.5	-9.7	0
3	-9.7	0
3.5	-9.7	0
4	-9.7	0
4.5	-9.7	0
5	-9.7	0
5.5	-9.7	0
6	-9.7	0
6.5	-9.7	0
7	-9.7	0
7.5	-9.7	0
8	-9.7	0
8.5	-9.7	0
9	-9.7	0
9.5	-9.7	0
10	-9.7	0
10.5	-9.7	0
11	-9.7	0
11.5	-9.7	0
12	-9.7	0
12.5	-9.7	0
13	-9.7	0
13.5	-9.7	0
14	-9.7	0
14.5	-9.7	0
15	-9.7	0
15.5	-9.7	0
16	-9.7	0
16.5	-9.7	0
17	-9.7	0
17.5	-9.7	0
18	-9.7	0
18.5	-9.7	0
19	-9.7	0
19.5	-9.7	0
20	-9.7	0
20.5	-9.7	0
21	-9.7	0
21.5	-9.7	0
22	-9.7	0
22.5	-9.7	0
23	-9.7	0
23.5	-9.7	0
24	-9.7	0
24.5	-9.7	0
25	-9.7	0
25.5	-9.7	0
26	-9.7	0
26.5	-9.7	0
27	-9.7	0
27.5	-9.7	0
28	-9.7	0
28.5	-9.7	0
29	-9.7	0
29.5	-9.7	0
30	-9.7	0
30.5	-9.7	0
31	-9.7	0
31.5	-9.7	0
32	-9.7	0
32.5	-9.7	0
33	-9.7	0
33.5	-9.7	0
34	-9.7	0
34.5	-9.7	0
35	-9.7	0
35.5	-9.7	0
36	-9.7	0
36.5	-9.7	0
37	-9.7	0
37.5	-9.7	0
38	-9.7	0
38.5	-9.7	0
39	-9.7	0
39.5	-9.7	0
40	-9.7	0
40.5	-9.7	0
41	-9.7	0
41.5	-9.7	0
42	-9.7	0
42.5	-9.7	0
43	-9.7	0
43.5	-9.7	0
44	-9.7	0
44.5	-9.7	0
45	-9.7	0
45.5	-9.7	0
46	-9.7	0
46.5	-9.7	0
47	-9.7	0
47.5	-9.7	0
48	-9.7	0
48.5	-9.7	0
49	-9.7	0
49.5	-9.7	0
50	-9.7	0
0.5	-9.6	0
0	-9.6	0
1	-9.6	0
1.5	-9.6	0
2	-9.6	0
2.5	-9.6	0
3	-9.6	0
3.5	-9.6	0
4	-9.6	0
4.5	-9.6	0
5	-9.6	0
5.5	-9.6	0
6	-9.6	0
6.5	-9.6	0
7	-9.6	0
7.5	-9.6	0
8	-9.6	0
8.5	-9.6	0
9	-9.6	0
9.5	-9.6	0
10	-9.6	0
10.5	-9.6	0
11	-9.6	0
11.5	-9.6	0
12	-9.6	0
12.5	-9.6	0
13	-9.6	0
13.5	-9.6	0
14	-9.6	0
14.5	-9.6	0
15	-9.6	0
15.5	-9.6	0
16	-9.6	0
16.5	-9.6	0
17	-9.6	0
17.5	-9.6	0
18	-9.6	0
18.5	-9.6	0
19	-9.6	0
19.5	-9.6	0
20	-9.6	0
20.5	-9.6	0
21	-9.6	0
21.5	-9.6	0
22	-9.6	0
22.5	-9.6	0
23	-9.6	0
23.5	-9.6	0
24	-9.6	0
24.5	-9.6	0
25	-9.6	0
25.5	-9.6	0
26	-9.6	0
26.5	-9.6	0
27	-9.6	0
27.5	-9.6	0
28	-9.6	0
28.5	-9.6	0
29	-9.6	0
29.5	-9.6	0
30	-9.6	0
30.5	-9.6	0
31	-9.6	0
31.5	-9.6	0
32	-9.6	0
32.5	-9.6	0
33	-9.6	0
33.5	-9.6	0
34	-9.6	0
34.5	-9.6	0
35	-9.6	0
35.5	-9.6	0
36	-9.6	0
36.5	-9.6	0
37	-9.6	0
37.5	-9.6	0
38	-9.6	0
38.5	-9.6	0
39	-9.6	0
39.5	-9.6	0
40	-9.6	0
40.5	-9.6	0
41	-9.6	0
41.5	-9.6	0
42	-9.6	0
42.5	-9.6	0
43	-9.6	0
43.5	-9.6	0
44	-9.6	0
44.5	-9.6	0
45	-9.6	0
45.5	-9.6	0
46	-9.6	0
46.5	-9.6	0
47	-9.6	0
47.5	-9.6	0
48	-9.6	0
48.5	-9.6	0
49	-9.6	0
49.5	-9.6	0
50	-9.6	0
0.5	-9.5	0
0	-9.5	0
1	-9.5	0
1.5	-9.5	0
2	-9.5	0
2.5	-9.5	0
3	-9.5	0
3.5	-9.5	0
4	-9.5	0
4.5	-9.5	0
5	-9.5	0
5.5	-9.5	0
6	-9.5	0
6.5	-9.5	0
7	-9.5	0
7.5	-9.5	0
8	-9.5	0
8.5	-9.5	0
9	-9.5	0
9.5	-9.5	0
10	-9.5	0
10.5	-9.5	0
11	-9.5	0
11.5	-9.5	0
12	-9.5	0
12.5	-9.5	0
13	-9.5	0
13.5	-9.5	0
14	-9.5	0
14.5	-9.5	0
15	-9.5	0
15.5	-9.5	0
16	-9.5	0
16.5	-9.5	0
17	-9.5	0
17.5	-9.5	0
18	-9.5	0
18.5	-9.5	0
19	-9.5	0
19.5	-9.5	0
20	-9.5	0
20.5	-9.5	0
21	-9.5	0
21.5	-9.5	0
22	-9.5	0
22.5	-9.5	0
23	-9.5	0
23.5	-9.5	0
24	-9.5	0
24.5	-9.5	0
25	-9.5	0
25.5	-9.5	0
26	-9.5	0
26.5	-9.5	0
27	-9.5	0
27.5	-9.5	0
28	-9.5	0
28.5	-9.5	0
29	-9.5	0
29.5	-9.5	0
30	-9.5	0
30.5	-9.5	0
31	-9.5	0
31.5	-9.5	0
32	-9.5	0
32.5	-9.5	0
33	-9.5	0
33.5	-9.5	0
34	-9.5	0
34.5	-9.5	0
35	-9.5	0
35.5	-9.5	0
36	-9.5	0
36.5	-9.5	0
37	-9.5	0
37.5	-9.5	0
38	-9.5	0
38.5	-9.5	0
39	-9.5	0
39.5	-9.5	0
40	-9.5	0
40.5	-9.5	0
41	-9.5	0
41.5	-9.5	0
42	-9.5	0
42.5	-9.5	0
43	-9.5	0
43.5	-9.5	0
44	-9.5	0
44.5	-9.5	0
45	-9.5	0
45.5	-9.5	0
46	-9.5	0
46.5	-9.5	0
47	-9.5	0
47.5	-9.5	0
48	-9.5	0
48.5	-9.5	0
49	-9.5	0
49.5	-9.5	0
50	-9.5	0
0.5	-9.4	0
0	-9.4	0
1	-9.4	0
1.5	-9.4	0
2	-9.4	0
2.5	-9.4	0
3	-9.4	0
3.5	-9.4	0
4	-9.4	0
4.5	-9.4	0
5	-9.4	0
5.5	-9.4	0
6	-9.4	0
6.5	-9.4	0
7	-9.4	0
7.5	-9.4	0
8	-9.4	0
8.5	-9.4	0
9	-9.4	0
9.5	-9.4	0
10	-9.4	0
10.5	-9.4	0
11	-9.4	0
11.5	-9.4	0
12	-9.4	0
12.5	-9.4	0
13	-9.4	0
13.5	-9.4	0
14	-9.4	0
14.5	-9.4	0
15	-9.4	0
15.5	-9.4	0
16	-9.4	0
16.5	-9.4	0
17	-9.4	0
17.5	-9.4	0
18	-9.4	0
18.5	-9.4	0
19	-9.4	0
19.5	-9.4	0
20	-9.4	0
20.5	-9.4	0
21	-9.4	0
21.5	-9.4	0
22	-9.4	0
22.5	-9.4	0
23	-9.4	0
23.5	-9.4	0
24	-9.4	0
24.5	-9.4	0
25	-9.4	0
25.5	-9.4	0
26	-9.4	0
26.5	-9.4	0
27	-9.4	0
27.5	-9.4	0
28	-9.4	0
28.5	-9.4	0
29	-9.4	0
29.5	-9.4	0
30	-9.4	0
30.5	-9.4	0
31	-9.4	0
31.5	-9.4	0
32	-9.4	0
32.5	-9.4	0
33	-9.4	0
33.5	-9.4	0
34	-9.4	0
34.5	-9.4	0
35	-9.4	0
35.5	-9.4	0
36	-9.4	0
36.5	-9.4	0
37	-9.4	0
37.5	-9.4	0
38	-9.4	0
38.5	-9.4	0
39	-9.4	0
39.5	-9.4	0
40	-9.4	0
40.5	-9.4	0
41	-9.4	0
41.5	-9.4	0
42	-9.4	0
42.5	-9.4	0
43	-9.4	0
43.5	-9.4	0
44	-9.4	0
44.5	-9.4	0
45	-9.4	0
45.5	-9.4	0
46	-9.4	0
46.5	-9.4	0
47	-9.4	0
47.5	-9.4	0
48	-9.4	0
48.5	-9.4	0
49	-9.4	0
49.5	-9.4	0
50	-9.4	0
0.5	-9.3	0
0	-9.3	0
1	-9.3	0
1.5	-9.3	0
2	-9.3	0
2.5	-9.3	0
3	-9.3	0
3.5	-9.3	0
4	-9.3	0
4.5	-9.3	0
5	-9.3	0
5.5	-9.3	0
6	-9.3	0
6.5	-9.3	0
7	-9.3	0
7.5	-9.3	0
8	-9.3	0
8.5	-9.3	0
9	-9.3	0
9.5	-9.3	0
10	-9.3	0
10.5	-9.3	0
11	-9.3	0
11.5	-9.3	0
12	-9.3	0
12.5	-9.3	0
13	-9.3	0
13.5	-9.3	0
14	-9.3	0
14.5	-9.3	0
15	-9.3	0
15.5	-9.3	0
16	-9.3	0
16.5	-9.3	0
17	-9.3	0
17.5	-9.3	0
18	-9.3	0
18.5	-9.3	0
19	-9.3	0
19.5	-9.3	0
20	-9.3	0
20.5	-9.3	0
21	-9.3	0
21.5	-9.3	0
22	-9.3	0
22.5	-9.3	0
23	-9.3	0
23.5	-9.3	0
24	-9.3	0
24.5	-9.3	0
25	-9.3	0
25.5	-9.3	0
26	-9.3	0
26.5	-9.3	0
27	-9.3	0
27.5	-9.3	0
28	-9.3	0
28.5	-9.3	0
29	-9.3	0
29.5	-9.3	0
30	-9.3	0
30.5	-9.3	0
31	-9.3	0
31.5	-9.3	0
32	-9.3	0
32.5	-9.3	0
33	-9.3	0
33.5	-9.3	0
34	-9.3	0
34.5	-9.3	0
35	-9.3	0
35.5	-9.3	0
36	-9.3	0
36.5	-9.3	0
37	-9.3	0
37.5	-9.3	0
38	-9.3	0
38.5	-9.3	0
39	-9.3	0
39.5	-9.3	0
40	-9.3	0
40.5	-9.3	0
41	-9.3	0
41.5	-9.3	0
42	-9.3	0
42.5	-9.3	0
43	-9.3	0
43.5	-9.3	0
44	-9.3	0
44.5	-9.3	0
45	-9.3	0
45.5	-9.3	0
46	-9.3	0
46.5	-9.3	0
47	-9.3	0
47.5	-9.3	0
48	-9.3	0
48.5	-9.3	0
49	-9.3	0
49.5	-9.3	0
50	-9.3	0
0.5	-9.2	0
0	-9.2	0
1	-9.2	0
1.5	-9.2	0
2	-9.2	0
2.5	-9.2	0
3	-9.2	0
3.5	-9.2	0
4	-9.2	0
4.5	-9.2	0
5	-9.2	0
5.5	-9.2	0
6	-9.2	0
6.5	-9.2	0
7	-9.2	0
7.5	-9.2	0
8	-9.2	0
8.5	-9.2	0
9	-9.2	0
9.5	-9.2	0
10	-9.2	0
10.5	-9.2	0
11	-9.2	0
11.5	-9.2	0
12	-9.2	0
12.5	-9.2	0
13	-9.2	0
13.5	-9.2	0
14	-9.2	0
14.5	-9.2	0
15	-9.2	0
15.5	-9.2	0
16	-9.2	0
16.5	-9.2	0
17	-9.2	0
17.5	-9.2	0
18	-9.2	0
18.5	-9.2	0
19	-9.2	0
19.5	-9.2	0
20	-9.2	0
20.5	-9.2	0
21	-9.2	0
21.5	-9.2	0
22	-9.2	0
22.5	-9.2	0
23	-9.2	0
23.5	-9.2	0
24	-9.2	0
24.5	-9.2	0
25	-9.2	0
25.5	-9.2	0
26	-9.2	0
26.5	-9.2	0
27	-9.2	0
27.5	-9.2	0
28	-9.2	0
28.5	-9.2	0
29	-9.2	0
29.5	-9.2	0
30	-9.2	0
30.5	-9.2	0
31	-9.2	0
31.5	-9.2	0
32	-9.2	0
32.5	-9.2	0
33	-9.2	0
33.5	-9.2	0
34	-9.2	0
34.5	-9.2	0
35	-9.2	0
35.5	-9.2	0
36	-9.2	0
36.5	-9.2	0
37	-9.2	0
37.5	-9.2	0
38	-9.2	0
38.5	-9.2	0
39	-9.2	0
39.5	-9.2	0
40	-9.2	0
40.5	-9.2	0
41	-9.2	0
41.5	-9.2	0
42	-9.2	0
42.5	-9.2	0
43	-9.2	0
43.5	-9.2	0
44	-9.2	0
44.5	-9.2	0
45	-9.2	0
45.5	-9.2	0
46	-9.2	0
46.5	-9.2	0
47	-9.2	0
47.5	-9.2	0
48	-9.2	0
48.5	-9.2	0
49	-9.2	0
49.5	-9.2	0
50	-9.2	0
0.5	-9.1	0
0	-9.1	0
1	-9.1	0
1.5	-9.1	0
2	-9.1	0
2.5	-9.1	0
3	-9.1	0
3.5	-9.1	0
4	-9.1	0
4.5	-9.1	0
5	-9.1	0
5.5	-9.1	0
6	-9.1	0
6.5	-9.1	0
7	-9.1	0
7.5	-9.1	0
[...]
CELL_DATA 10000
SCALARS Coverage double 1
LOOKUP_TABLE default
-0.22449063697526 -0.20089195060477 -0.17888195932298 -0.15838861810486 -0.13933134338345 -0.12153615956131 -0.10493697654149 -0.089530896970998 -0.075262859293745 -0.06206212807066 -0.049874151210637 -0.03875480776422 -0.028646440550036 -0.01943006136511 -0.01102363310783 -0.0031666088766297 0.0038118927834839 0.010322424956481 0.016082377825367 0.021585904422153 0.02638690421219 0.03109848389996 0.03521916319724 0.039137161736372 0.042925284076938 0.046181197096394 0.049526641516474 0.052387318253677 0.055204740254323 0.057697431562463 0.060239928891234 0.062553712657475 0.06492107640824 0.067312915983756 0.069249327492438 0.071278009332183 0.073393012327646 0.075248711049816 0.077138225483697 0.079037584868893 0.080541280681387 0.082038760204261 0.083274123604499 0.084423661289871 0.085272741651061 0.08609557881305 0.086327628550146 0.086427352132568 0.086082790605367 0.08552028676212 0.084730795888542 0.083937511180361 0.082962611547821 0.082245563304594 0.081431893732541 0.080720371333984 0.07983728594067 0.078929071926348 0.077787709756985 0.076523943218814 0.075161741961803 0.073472744154514 0.071762909488242 0.069762392635004 0.067275209979257 0.06443772454911 0.061287953929577 0.057513421970271 0.053423612926144 0.048759292533376 0.043702789634433 0.038001792785851 0.031848114046731 0.025373252356883 0.01834481199878 0.010940072112014 0.0030718487011845 -0.0050326303112911 -0.013751542321468 -0.022634859028843 -0.032086446622805 -0.041839148267615 -0.052194067122405 -0.062886572730648 -0.074205463267166 -0.085932748510223 -0.098020280355706 -0.11059826527844 -0.12359759030231 -0.13739836337557 -0.15192042978469 -0.16690279628499 -0.18240835985793 -0.19861027474687 -0.21569563396812 -0.23366695744529 -0.25239667174742 -0.27190174710091 -0.29239467118704 -0.31437843983886 -0.21307606835657 -0.18926263451777 -0.1670586209109 -0.14639470470807 -0.12716672012761 -0.10922215396183 -0.092483211934695 -0.076955717670951 -0.062562725462957 -0.049236486562839 -0.036955722603188 -0.025741374484176 -0.015535355838582 -0.0062379887301643 0.002245164459346 0.010121768332259 0.017211032769261 0.023717425174587 0.029599333456942 0.035088327255713 0.039998719476501 0.044678360012851 0.048887945835372 0.052839876532098 0.056614067804963 0.059970282222428 0.063269186678225 0.066199252751792 0.069007458114009 0.071529431326634 0.074027310257666 0.07640032257194 0.07878405947682 0.081106087672516 0.083113739118391 0.085133912986658 0.087210261789965 0.089121753829526 0.091012057124772 0.092858454584006 0.09442429993485 0.095902100554611 0.097142382285286 0.098235272722932 0.099139580472028 0.099905221640998 0.10019738385834 0.10024032874427 0.099946640536384 0.099380518484069 0.098603367878533 0.097787776717124 0.096888518917113 0.09612409321333 0.095385284326425 0.094696992909239 0.09387125155527 0.092965560566146 0.091905782084925 0.090689959615603 0.089328229021921 0.087720168911551 0.086057796766095 0.084058785890624 0.081641608753992 0.078833059975496 0.075658632169772 0.071936511038192 0.067848511919674 0.063193003992017 0.058089460317423 0.052390583555996 0.046213697877177 0.039653672737133 0.032619618207319 0.025168019088834 0.017259670078639 0.0090387166217293 0.00032558200644949 -0.008695905591835 -0.018168144658487 -0.028021875565951 -0.038435708147428 -0.049275780283085 -0.06065235015438 -0.072482736842775 -0.084734588102 -0.097387526724154 -0.11051949054947 -0.12447241164816 -0.13912874851993 -0.15427481346626 -0.16995219850932 -0.18631979977997 -0.20358397559378 -0.22174586540598 -0.24066356927492 -0.26036370664791 -0.2810528657204 -0.30326808074839 -0.20156028535299 -0.17753355732073 -0.15513363442556 -0.13429679178861 -0.11489690318641 -0.096801644511865 -0.079920870989155 -0.064268132296612 -0.049749954943399 -0.036305132372542 -0.023919926894691 -0.012618999862555 -0.0023182543341671 0.0070559157796667 0.015615402100342 0.023532279396202 0.030705621313454 0.037235680438016 0.043210085918077 0.048710354020601 0.05370304417891 0.058382834440506 0.062657459478521 0.066641586543843 0.070424679818316 0.073845938547646 0.077135205763237 0.080106252299648 0.082907089112483 0.085462075582028 0.087937758836604 0.090344061698655 0.092736066026289 0.0950265257189 0.097070291837835 0.099082086602321 0.10114923239026 0.10308582457858 0.10497394073608 0.1067960264075 0.10839970071291 0.10986249544745 0.11110341298274 0.11215977637715 0.11309004182317 0.1138290628568 0.11415340530852 0.11417159309497 0.11390601943104 0.11333582660313 0.11257059189168 0.11174975478567 0.11090594987886 0.11012439373202 0.10944015646904 0.10878263998052 0.10800567865361 0.10712581829002 0.10612605519224 0.10495677169515 0.10362416059635 0.10208358563399 0.10046412348271 0.098489111328419 0.096119232221608 0.093338975438043 0.090166260165352 0.086481787194013 0.082392464320906 0.077747870467504 0.072613913917466 0.066894510845478 0.060698635134071 0.054083461951545 0.0470127763201 0.039522341165025 0.031565291152431 0.023251006070477 0.014504524869353 0.0053851635261312 -0.0041414528496919 -0.014076495630178 -0.024562424037326 -0.035526365494166 -0.046986879809312 -0.058911199464112 -0.071307383478968 -0.084064695165374 -0.097321087139455 -0.11141342530734 -0.12621153238911 -0.14152353351075 -0.15736171200259 -0.17390369908297 -0.19134826427336 -0.20970049890288 -0.22880841511578 -0.24870327009558 -0.26959137697149 -0.29203990845873 -0.18994728831104 -0.16570474681877 -0.14310644885018 -0.12209155249554 -0.10252137226895 -0.084266814468028 -0.067250160053853 -0.05147104374046 -0.036824680545554 -0.023264371269462 -0.010773007753744 0.00061290056795735 0.011006549733907 0.020457048724578 0.029090754503947 0.037061812614579 0.044301303970043 0.050869995796331 0.05692194662134 0.062448400434268 0.067510765509756 0.072206279659707 0.076532248744144 0.080549613382931 0.084353544934172 0.087819892259256 0.091119401149081 0.094116235021858 0.096910563251519 0.099493971112745 0.10196204441666 0.10438937754313 0.10678569518802 0.10906499894098 0.11112475258831 0.11312721609183 0.11519782107593 0.1171494591506 0.11903776718229 0.12085019214607 0.12247221826229 0.12392055424575 0.12516024471477 0.12619600554188 0.1271359142522 0.1278678948608 0.12820435081971 0.12821128434817 0.12795970470561 0.12739680451818 0.12664090321029 0.12582490235792 0.12502063659722 0.12423768880283 0.12359141325445 0.12297411994466 0.12223839688359 0.12139837150352 0.120453853242 0.11933595994986 0.1180483276516 0.11656013438969 0.11498340806243 0.11304395250436 0.11071698006513 0.10796104288317 0.10480981280769 0.10114996498938 0.097059317357922 0.092423026983599 0.087267801825671 0.081524915687593 0.075303133049442 0.06864190135965 0.061527806686258 0.054000285943684 0.045993638145528 0.037591387016435 0.028798129215728 0.019598250516799 0.010008799641534 -3.461247155183e-08 -0.010571090123508 -0.021650383958821 -0.033199450766083 -0.045221482301684 -0.057748075613473 -0.070619846517944 -0.083996391371883 -0.098226781830907 -0.1131688366662 -0.12864570625496 -0.14464836931356 -0.16135751609229 -0.17898522603161 -0.19752886312356 -0.21683044558627 -0.23692410397439 -0.2580101357449 -0.28068512530383 -0.17823452185953 -0.15377540611017 -0.13097633872064 -0.10978094833597 -0.090039429456597 -0.071621763762499 -0.054471284793187 -0.038559202935647 -0.02378907264367 -0.010112972817548 0.0024871634572888 0.013955068024275 0.024441570826534 0.03396808895756 0.042675191616347 0.050700956025597 0.058000790851252 0.064623185283327 0.070742659168895 0.076299805444603 0.081418772754425 0.086140666584143 0.090510191628015 0.094563816141904 0.098390740438072 0.10189621010095 0.10521420234849 0.10823359095205 0.1110251703386 0.11362444664771 0.11610104032559 0.11853631481032 0.12094267013944 0.1232158866395 0.12528294101933 0.12727576348902 0.12935522496509 0.13131982745585 0.13321078489047 0.13501694058574 0.13664996381346 0.13808128737544 0.13932235169474 0.1403432668241 0.14128732332356 0.14201746412027 0.14235717167463 0.14235824445576 0.14212198699235 0.14156555711071 0.14081763425367 0.14001390210893 0.1392363455678 0.13846567885028 0.13785142472474 0.13727350483409 0.13658102301782 0.13578964589432 0.1348933708238 0.13383596762022 0.13259392068976 0.13116298996434 0.12962637332115 0.12772702927454 0.12543751946245 0.12271394215793 0.11958147840246 0.11595084880757 0.11185827824451 0.10722871020495 0.10204705633621 0.096279345720323 0.090028606810201 0.08333057321136 0.076176067917065 0.068608135706599 0.060541691040107 0.052066387887448 0.043212010540084 0.033947938411775 0.024283578943715 0.014202436367235 0.0035472877124986 -0.0076499300375437 -0.019288206400663 -0.031411874768965 -0.0440602484896 -0.057048699197034 -0.070543948140492 -0.084915552390155 -0.10000509401408 -0.11564028435343 -0.1318134489296 -0.14868360751102 -0.16649791014688 -0.18523342801582 -0.20473111900641 -0.22502699882943 -0.24631094141257 -0.26921589519457 -0.16643613361679 -0.14174592457875 -0.1187429196991 -0.09736476747366 -0.077450662141579 -0.058868926794111 -0.041580661152956 -0.025533660312978 -0.010640752148329 0.0031492168958318 0.015858848383081 0.027410659767194 0.037985277866714 0.047589479539857 0.056365923283324 0.064452908013948 0.071810673494461 0.078486613485913 0.084666548254675 0.09026286733364 0.095429106629988 0.10018478351698 0.10459671371521 0.10868601738031 0.1125417702892 0.11608156554373 0.11942229447107 0.12246471939011 0.12525138235336 0.12786233537086 0.13035135656349 0.13279407246491 0.13521205901245 0.13747804050445 0.13954600468471 0.14153481947969 0.14362753455751 0.14560139866439 0.14749284853205 0.14929174969037 0.15093277008072 0.15235963187923 0.15359638006637 0.15460380898771 0.15554570124689 0.15627757065021 0.15661580675281 0.15662297665562 0.15639751816753 0.15584530826774 0.15510848095477 0.15431483253187 0.15355810428277 0.15280748514893 0.15222178355266 0.15168495844111 0.15103521131876 0.15029711183604 0.14944988508957 0.14845357324838 0.14726133418036 0.14588789496815 0.14439367994992 0.14253779459665 0.14028152247211 0.13759220084737 0.13448876676973 0.13088358364967 0.12678748520206 0.12216171756894 0.11695687941147 0.11115999800608 0.10488308868161 0.098155545708753 0.090957945138634 0.083344879587306 0.075219172346766 0.066672712840835 0.057761323462153 0.048428732102479 0.038688201831664 0.028533318807086 0.017793042874717 0.0064834920047038 -0.0052476153267056 -0.017475262743651 -0.030235521899083 -0.043347772309955 -0.056965314587475 -0.071474774854919 -0.086715376451564 -0.10250778632924 -0.1188478528529 -0.13588309003039 -0.15388869030029 -0.1728167057373 -0.19251305188295 -0.2130100127665 -0.23449347309135 -0.2576175325578 -0.15452964627875 -0.12961499383325 -0.10640570013804 -0.084842607748739 -0.064753069926875 -0.046007136191418 -0.028570777988553 -0.012395552561331 0.0026177806636557 0.016527144514041 0.029341675501329 0.040978124462421 0.051637509236287 0.061321292629909 0.070166440359615 0.078316241752868 0.085731947031644 0.09246501496622 0.098696013756656 0.10433712103167 0.1095500265584 0.11434456393995 0.11879043397675 0.12292142210144 0.12680399850194 0.13038137625491 0.13374404729678 0.13680329965478 0.13958931556622 0.14221809097078 0.14471770218836 0.14716100826714 0.14958647676758 0.15185379612061 0.1539155650169 0.15591524121366 0.15800976251107 0.15999222886963 0.16188361772211 0.16368052470652 0.16531947575357 0.16675210108316 0.1679781629138 0.16897325345915 0.16991436271856 0.17064856139857 0.17098211413918 0.17100397477804 0.17077779453233 0.1702357051796 0.16950919183702 0.16872945416414 0.1679886467726 0.16726371159512 0.16670343901952 0.16620800988919 0.16560230527851 0.16491951054701 0.16412422543992 0.16319648404279 0.16205734068501 0.16073479354282 0.15928196339662 0.15747676184241 0.15525402643731 0.15260736563176 0.14953132026442 0.14594597867131 0.14184736401764 0.13722164132139 0.13199423917912 0.1261794650628 0.11987097334693 0.11310997247205 0.1058701712086 0.098208531861586 0.090029393412266 0.081414063361163 0.072441825097312 0.063039956461815 0.05321851168369 0.042996514056785 0.03216781619823 0.020753384330703 0.0089266827018726 -0.0034074842741786 -0.016278493614812 -0.029513535857444 -0.043260775545003 -0.057906781275339 -0.073298181287833 -0.089249395515172 -0.10575099838596 -0.12295543757845 -0.14115307693024 -0.16028166766152 -0.18017852972286 -0.2008731676074 -0.22255855569939 -0.24590358309696 -0.14253127668221 -0.11738300044277 -0.093963918203441 -0.072213638251057 -0.05194597006806 -0.033036138184213 -0.015448625556073 0.00085562669030044 0.01598830453025 0.030018183937294 0.042935290129946 0.05465954450725 0.065400411498026 0.07516310328176 0.084077410230906 0.092292805511124 0.099764566890851 0.10655901206303 0.11283476773449 0.11852472896539 0.1237822895444 0.12861918598121 0.13309439086816 0.13727027752575 0.14118103944841 0.14479348313722 0.14817796320533 0.15125291574524 0.15404340941628 0.15669341734772 0.15920051951673 0.16164556303119 0.16407255910323 0.16634351437639 0.16840790790816 0.17041217484022 0.17250876372467 0.17449729938317 0.17639123555197 0.17818479821231 0.17982480184676 0.18125866605808 0.18247291744532 0.18345457524147 0.18439174327221 0.18512811555902 0.18546709059192 0.18549617870507 0.18527006905027 0.18473763263728 0.18402186707221 0.18325446164165 0.18252986696184 0.18183776136081 0.18129795740407 0.18084419374842 0.1802902495555 0.17965614174727 0.17891227473476 0.17806464343602 0.17697844835507 0.17571364983368 0.17430328735342 0.17254818689646 0.17035735720688 0.16775220068923 0.16470444874835 0.16114240730476 0.15704581209845 0.15241438314346 0.14716061088115 0.14133625521888 0.13498563711648 0.12819508473173 0.12091820997493 0.11320836885749 0.10496528400568 0.096288407224177 0.087245682029352 0.077780759305656 0.06787857267517 0.057590707558773 0.046672006915669 0.035162917330414 0.023226796794397 0.010790567406481 -0.0021878821275554 -0.015548442306695 -0.029426994264678 -0.044208383627145 -0.059750474909988 -0.075869289931209 -0.092527167895221 -0.10990324348322 -0.12829206647457 -0.14762284730647 -0.16772291539741 -0.18861613374976 -0.21050568945195 -0.23406986454642 -0.13042476211393 -0.10504901794368 -0.081417123265267 -0.059477425554991 -0.039029274259707 -0.019955428939886 -0.0022149854804634 0.014217941630183 0.029478830175872 0.043623103768037 0.056641041882432 0.068452588861969 0.079277034255063 0.089115346031903 0.098101206057711 0.10638228545646 0.11391093787082 0.12076729725627 0.12708549973542 0.13282667726452 0.13812821308993 0.14300631614391 0.14751397748586 0.1517392498253 0.1556733574396 0.15932364829404 0.1627266128481 0.16581911865974 0.16861151269858 0.17128646342445 0.17379804198944 0.17624575247477 0.17867106966498 0.18094613846354 0.18301542046128 0.18502708444227 0.18712237826221 0.1891203046247 0.19101347737374 0.19280362522789 0.19444562573345 0.19587949381424 0.19708194863675 0.19805367012642 0.19898341512512 0.19971776994271 0.200066811398 0.20010360041974 0.19987635331826 0.19934980145843 0.19865065440308 0.19789399294846 0.19718922477536 0.19652586075206 0.19600255029582 0.19559303517957 0.19510009024437 0.1945102833585 0.19382458862608 0.19305353174994 0.19202109288966 0.19081513457164 0.18945903181383 0.1877483067254 0.18558979809471 0.18302972404414 0.18000674324041 0.17646808530538 0.17238209626673 0.16774411777947 0.1624640873321 0.15662172569326 0.15022540834548 0.14340638071161 0.13610200359893 0.12833656968073 0.12003410556357 0.1112923520735 0.10217694325467 0.092646304599031 0.082675072494769 0.072309259559269 0.061306849004219 0.049698017300746 0.037655118964216 0.025118455650504 0.0120323041989 -0.0014569460330077 -0.015460566435082 -0.030377833359425 -0.046069736738228 -0.062362938123157 -0.07918119290723 -0.096724058329022 -0.11530731171041 -0.13483867561983 -0.15514665037989 -0.17624315133278 -0.19833446310046 -0.22211243824249 -0.11821783264076 -0.092613106852658 -0.068764892613912 -0.046633529193453 -0.026002832891616 -0.0067620343231643 0.01112982498939 0.027695613310749 0.043083762151322 0.057342962469532 0.070459191928604 0.082361992786786 0.093268309540591 0.1031811941665 0.11224084418254 0.12058329559225 0.12817072677821 0.13509606058403 0.14145127797324 0.14724512075856 0.15258874369646 0.15751153885819 0.16204913839935 0.16632230576135 0.17027866516201 0.17397176523594 0.17739328666613 0.18050051186395 0.18329861087687 0.18600106154551 0.18851283246724 0.19096318886369 0.19338566196574 0.19566553432375 0.19774017098102 0.19976241302925 0.20185241940558 0.20385859670498 0.20574933284429 0.2075374208533 0.20917909550828 0.21061490076996 0.21180727204301 0.21276946962068 0.21369007654119 0.21441818744377 0.21478147636414 0.21482632868719 0.21459569755938 0.21407882150538 0.21339421355111 0.21264977966326 0.21196306575588 0.21133174410713 0.21082072272735 0.21046010569026 0.21003188801468 0.20948616544494 0.20886324650934 0.20816523146005 0.20718403017966 0.2060398524023 0.20474648913516 0.20308235145071 0.20095767603683 0.19843794162872 0.19543884328682 0.19192201696406 0.18785008801875 0.18320382481305 0.1779065330419 0.17203809497989 0.16560131852276 0.15874707318826 0.15141982492403 0.14359827560342 0.13523910105721 0.12642153267854 0.11723156254349 0.10764036501191 0.097603635279116 0.087152000884985 0.07607510853707 0.064361732250255 0.052207031502664 0.039573261353806 0.026380487725132 0.012764366198636 -0.0013626650562872 -0.016417988720913 -0.032265749238784 -0.048724733801536 -0.065708666223568 -0.08342586852595 -0.10219805937874 -0.1219385619862 -0.14245525601174 -0.16375499188813 -0.18604659184189 -0.21004205157243 -0.10591242322343 -0.080074062503396 -0.056006193107345 -0.033680896270178 -0.01286611931977 0.0065430452416732 0.024586989645857 0.041288260570148 0.056802094135359 0.071177789202883 0.08439257574178 0.096389289556289 0.10737588948831 0.11736068959473 0.12649849382556 0.13490060749845 0.14254512783861 0.14954105236846 0.15593206135312 0.16178024506362 0.16716435557728 0.17213248393998 0.17670104755743 0.18101965349276 0.18500036342588 0.18873697674128 0.19218046059463 0.19529593801176 0.19810676021557 0.20083490408169 0.20335373731152 0.20579990409491 0.2082209783267 0.21050269320787 0.21259051968959 0.21461626802825 0.21670169188017 0.2187145456429 0.22060170478397 0.22239308675081 0.22403753824756 0.22547074948427 0.22664854854758 0.2276044795887 0.22851280725858 0.22924191170373 0.22961465647089 0.22966766102716 0.22943182690716 0.22892535780407 0.22825091745931 0.22752372779284 0.22685190048607 0.22625716051875 0.22576362990173 0.22544763008844 0.22507712927055 0.22458962183375 0.22403169314013 0.22340052140579 0.22248165409815 0.22139401109792 0.22015803788075 0.21854780575065 0.21646745153429 0.21398137292369 0.21100871315488 0.20750602778059 0.20344757531034 0.19879853048228 0.19348732415421 0.18758549062674 0.18111674329135 0.17421627944059 0.16686768055436 0.1589910141093 0.15057799814655 0.14169104938857 0.13242373895962 0.12276005898458 0.11265735262897 0.10212643419076 0.090977917893523 0.079160425927573 0.066898508719619 0.054155927747553 0.040856044467672 0.027117417346582 0.012865024734776 -0.0023290089157399 -0.018335879399003 -0.034959686767352 -0.052107827999878 -0.07000556731578 -0.088964238640924 -0.10891837008822 -0.12964522995479 -0.15115150423746 -0.17364136043673 -0.19783971198967 -0.093529504894032 -0.067432473201919 -0.043140483921951 -0.020618877366426 0.00038161873684889 0.019961767515771 0.03815747669997 0.054996263216854 0.07063782940156 0.085127309537332 0.098442107647702 0.1105330973458 0.1215976619305 0.13165627545919 0.14087261318746 0.149338816874 0.1570391591964 0.16410203450389 0.17053136824193 0.1764313317264 0.18185989046819 0.1868681356322 0.19147272019116 0.19583194861696 0.19984547489925 0.20362001571524 0.20708235805591 0.21021519001108 0.21304325089978 0.21578546410351 0.2183177288113 0.220753