# vtk DataFile Version 3.0
d-2__ created by libgimli-v1.5.0-1-g5991b6ac
ASCII
DATASET UNSTRUCTURED_GRID
POINTS 257 double
25.5	-0.25	0
25.643267391024	-0.375	0
25.690940791558	-0.19094079155751	0
28.625	-0.27380702240065	0
28.625	-0.13804348840204	0
28.518663902413	-0.18940103023301	0
28.458333333333	-0.087886572211468	0
28.416666666667	0	0
28.375	-0.13804348840204	0
28.291666666667	-0.087886572211468	0
28.333333333333	0	0
28.25	0	0
26.083333333333	0	0
26.041666666667	-0.13804348840203	0
26.125	-0.087886572211466	0
26.166666666667	0	0
26	0	0
26.708333333333	-0.13804348840203	0
26.666666666667	0	0
26.625	-0.087886572211466	0
26.208333333333	-0.07357428207177	0
26.75	0	0
26.791666666667	-0.087886572211464	0
26.333333333333	0	0
26.25	0	0
26.291666666667	-0.087886572211468	0
27.166666666667	0	0
27.208333333333	-0.07357428207177	0
27.25	0	0
26.416666666667	0	0
26.375	-0.13804348840204	0
26.458333333333	-0.087886572211468	0
27.291666666667	-0.087886572211468	0
27.333333333333	0	0
27.625	-0.13804348840204	0
27.518663902413	-0.18940103023301	0
27.625	-0.27380702240065	0
26.583333333333	0	0
28.916666666667	0	0
28.833333333333	0	0
28.875	-0.13804348840204	0
26.833333333333	0	0
26.875	-0.07357428207177	0
29.98747163413	-0.5056358037932	0
30.050519698408	-0.25547676721966	0
29.843533331918	-0.29816134131379	0
29.458333333333	-0.087886572211464	0
29.404607252882	-0.15094638411797	0
29.541666666667	-0.13804348840203	0
26.5	0	0
27.791666666667	-0.087886572211468	0
27.833333333333	0	0
27.75	0	0
27.231336097587	-0.18940103023302	0
27.125	-0.13804348840204	0
25.705488373266	-0.59091608366499	0
26.007921013115	-0.8717186506847	0
25.91135296792	-0.47048281487414	0
30.166666666667	0	0
30.208333333333	-0.087886572211464	0
30.25	0	0
27	0	0
26.916666666667	0	0
26.958333333333	-0.13804348840203	0
30.791666666667	-0.087886572211468	0
30.833333333333	0	0
30.75	0	0
27.041666666667	-0.087886572211464	0
27.083333333333	0	0
30.083333333333	0	0
30.125	-0.07357428207177	0
28.541666666667	-0.073574282071767	0
27.375	-0.13804348840204	0
27.416666666667	0	0
27.5	0	0
27.458333333333	-0.087886572211468	0
28.583333333333	0	0
28.666666666667	0	0
28.226291378505	-0.21877391554365	0
28.432011579996	-0.40775209656411	0
30.148002764253	-0.18940103023303	0
30.208717134119	-0.38392172835888	0
30.291666666667	-0.13804348840203	0
28.208333333333	-0.07357428207177	0
28.166666666667	0	0
28.125	-0.072182208352023	0
27.875	-0.13804348840204	0
26.237940586216	-0.15094638411797	0
27.916666666667	0	0
27.708333333333	-0.07357428207177	0
28.083333333333	0	0
28	0	0
28.041666666667	-0.13804348840203	0
26.190375288162	-0.21877391554366	0
27.958333333333	-0.087886572211464	0
26.541666666667	-0.073574282071767	0
26.571273919549	-0.15094638411796	0
26.317063962986	-0.25702488420529	0
27.541666666667	-0.073574282071767	0
28.5	0	0
29.583333333333	0	0
29.625	-0.087886572211466	0
28.791666666667	-0.087886572211468	0
26.203594889612	-0.40391444725954	0
27.583333333333	0	0
27.666666666667	0	0
28.75	0	0
28.958333333333	-0.087886572211464	0
29	0	0
29.041666666667	-0.13804348840203	0
28.708333333333	-0.07357428207177	0
29.083333333333	0	0
29.125	-0.087886572211466	0
29.166666666667	0	0
29.208333333333	-0.13804348840203	0
29.25	0	0
28.165334880767	-0.15260258505374	0
29.291666666667	-0.087886572211464	0
27.731336097587	-0.18940103023302	0
29.5	0	0
29.416666666667	0	0
29.333333333333	0	0
29.375	-0.07357428207177	0
29.666666666667	0	0
28.086941669094	-0.2859797646022	0
27.958333333333	-0.18219221742147	0
29.125	-0.18219221742148	0
29.228873378537	-0.27753669533404	0
29.708333333333	-0.07357428207177	0
29.041666666667	-0.23876614697008	0
28.958333333333	-0.18219221742147	0
29.833333333333	0	0
29.875	-0.13804348840204	0
29.916666666667	0	0
29.791666666667	-0.087886572211468	0
29.75	0	0
29.958333333333	-0.087886572211464	0
30	0	0
29.483730629652	-0.25702488420531	0
30.333333333333	0	0
30.375	-0.087886572211466	0
29.369620976373	-0.40603607246707	0
29.604159114629	-0.34842263547806	0
31.124752694808	-0.11296503030675	0
31	0	0
30.958333333333	-0.087886572211468	0
30.041666666667	-0.13804348840203	0
30.416666666667	0	0
30.458333333333	-0.07357428207177	0
30.875	-0.13804348840204	0
30.583333333333	0	0
30.541666666667	-0.13804348840203	0
30.625	-0.087886572211466	0
30.5	0	0
30.43533056908	-0.18940103023302	0
30.916666666667	0	0
30.385963434616	-0.36114994877356	0
30.708333333333	-0.07357428207177	0
30.666666666667	0	0
29.636111778917	-0.20065391017952	0
30.999752694808	-0.25100851870879	0
28.731336097587	-0.18940103023302	0
26.851997235747	-0.18940103023303	0
30.737940586216	-0.15094638411797	0
26.523708621495	-0.21877391554365	0
27.133853031742	-0.25547676721968	0
26.949480301592	-0.25547676721966	0
27.041666666667	-0.52911283384145	0
27.041666666667	-0.18219221742147	0
29.357041954828	-0.21877391554366	0
29.737940586216	-0.15094638411797	0
30.690375288162	-0.21877391554366	0
29.958333333333	-0.18219221742147	0
25.875	-0.11303967622539	0
25.75	0	0
26.650397296319	-0.25702488420526	0
27.292050467453	-0.38392172835888	0
27.414390113348	-0.63321254312708	0
27.469144028345	-0.36097200963104	0
27.848127708251	-0.28948918465343	0
28.848127708251	-0.28948918465343	0
28.726596951268	-0.4234584073117	0
29.731548923005	-0.26700761442393	0
30.817063962986	-0.25702488420529	0
26.031958747178	-0.33325463579056	0
26.523689393121	-0.44776195923934	0
29.184065504659	-0.43422319923747	0
29.545209981036	-0.61464357222601	0
30.552290248164	-0.29580321144285	0
31.25	0	0
26.800529041383	-0.37028063139366	0
29.130694908432	-0.28024272799092	0
28.907115884997	-0.43487734236883	0
31.5	-0.5	0
31.5	-0.25	0
31.356886217184	-0.375	0
31.308843572405	-0.19115642759521	0
31.5	0	0
27.681768476189	-0.55823447719905	0
29.041897355025	-0.3545575021244	0
28.950100433703	-0.28398118611486	0
29.746371622197	-0.43057135368151	0
29.045779100149	-0.5143168838031	0
27.615347366628	-0.83560735755964	0
27.971649595913	-0.56775148091581	0
28.235269600634	-0.41546210057925	0
28.346412380513	-0.73751448832674	0
28.007726950717	-0.98664640296265	0
26.322202955504	-0.72835150504623	0
29.798122080496	-0.68908130839227	0
30.703430397599	-0.40445925111313	0
30.914859484231	-0.44990795630246	0
29.247599241801	-0.70334449364573	0
31.053928463665	-0.58159990549132	0
31.221377875989	-0.67457110982012	0
31.225195424337	-0.49586438948828	0
30.530720924191	-0.4852517756918	0
30.323984230706	-0.57992151527177	0
25.84485407481	-1.2957460393421	0
25.743909551686	-0.8528010586154	0
30.746070739038	-0.72060716412098	0
29.604860290622	-0.8788438191921	0
29.043947453281	-1.1807973577914	0
29.54268225478	-1.3246684327942	0
29.849430697053	-0.99522786547226	0
30.043693421774	-0.75311160759413	0
28.849047319116	-0.69970565535729	0
31.000856094841	-0.87446921301307	0
31.5	-1	0
25.845623228308	-0.30002188546398	0
30.512369350266	-0.71824350459	0
30	-1.6666666666667	0
30.051778272566	-1.3024535658708	0
25.5	0	0
27.680522574649	-1.2514855461386	0
27.375	-1.6666666666667	0
27.75	-1.6666666666667	0
31.174325422113	-0.32450830281231	0
25.5	-0.5	0
26.747329141204	-0.71351083399284	0
25.5	-0.75	0
26.348572023727	-1.2023161679924	0
27.179597305363	-1.0673000334922	0
29.25	-1.6666666666667	0
25.5	-1	0
30.75	-1.6666666666667	0
31.013091550828	-1.3141602648437	0
30.625304590967	-1.106556793762	0
30.375	-1.6666666666667	0
30.189043391347	-0.96114657873573	0
28.064690440023	-1.391571216678	0
28.426745644615	-1.201505510398	0
25.5	-1.6666666666667	0
27	-1.6666666666667	0
26.25	-1.6666666666667	0
28.5	-1.6666666666667	0
31.5	-1.6666666666667	0
CELLS 429 1716
3	0	1	2	
3	3	4	5	
3	6	7	8	
3	9	10	11	
3	12	13	14	
3	14	15	12	
3	16	13	12	
3	17	18	19	
3	20	15	14	
3	7	10	8	
3	21	17	22	
3	23	24	25	
3	26	27	28	
3	29	30	31	
3	23	30	29	
3	28	32	33	
3	34	35	36	
3	19	18	37	
3	38	39	40	
3	22	41	21	
3	41	22	42	
3	43	44	45	
3	18	17	21	
3	46	47	48	
3	31	49	29	
3	50	51	52	
3	53	27	54	
3	55	56	57	
3	58	59	60	
3	61	62	63	
3	64	65	66	
3	67	68	61	
3	67	61	63	
3	69	70	58	
3	4	71	5	
3	72	73	33	
3	5	6	8	
3	74	73	75	
3	73	72	75	
3	76	4	77	
3	78	79	8	
3	80	81	82	
3	83	84	85	
3	50	86	51	
3	25	87	30	
3	86	88	51	
3	52	89	50	
3	90	91	92	
3	93	87	14	
3	94	92	91	
3	95	49	31	
3	9	8	10	
3	84	83	11	
3	19	95	96	
3	91	88	94	
3	25	30	23	
3	9	11	83	
3	97	30	87	
3	98	74	75	
3	99	71	76	
3	100	48	101	
3	33	32	72	
3	99	7	6	
3	41	42	62	
3	102	40	39	
3	71	99	6	
3	97	93	103	
3	104	34	105	
3	39	106	102	
3	74	98	104	
3	38	107	108	
3	107	109	108	
3	35	75	72	
3	106	110	102	
3	34	98	35	
3	28	27	32	
3	111	112	113	
3	109	111	108	
3	59	82	60	
3	113	114	115	
3	116	9	83	
3	114	117	115	
3	50	89	118	
3	119	120	46	
3	119	48	100	
3	110	106	77	
3	120	121	122	
3	89	52	105	
3	101	123	100	
3	124	92	125	
3	54	26	68	
3	114	126	127	
3	101	128	123	
3	129	109	130	
3	131	132	133	
3	134	131	135	
3	48	119	46	
3	115	117	121	
3	136	137	133	
3	47	138	48	
3	60	82	139	
3	82	140	139	
3	141	142	138	
3	143	144	145	
3	122	47	46	
3	146	137	136	
3	113	112	114	
3	134	132	131	
3	147	140	148	
3	149	65	64	
3	150	151	152	
3	150	153	151	
3	148	154	151	
3	147	148	153	
3	65	149	155	
3	59	58	70	
3	155	145	144	
3	82	81	156	
3	145	155	149	
3	146	69	137	
3	157	158	152	
3	154	140	82	
3	147	139	140	
3	101	48	159	
3	149	160	145	
3	102	110	161	
3	150	152	158	
3	42	22	162	
3	157	163	64	
3	5	71	6	
3	4	76	71	
3	85	84	90	
3	116	83	85	
3	96	31	164	
3	49	95	37	
3	15	20	24	
3	25	20	87	
3	14	13	93	
3	25	24	20	
3	165	166	167	
3	63	168	67	
3	54	68	67	
3	17	162	22	
3	63	62	42	
3	35	98	75	
3	34	104	98	
3	26	54	27	
3	63	42	162	
3	88	86	94	
3	125	94	86	
3	105	34	89	
3	118	89	34	
3	77	4	110	
3	161	110	4	
3	111	109	112	
3	126	112	109	
3	47	117	169	
3	120	122	46	
3	38	40	107	
3	130	107	40	
3	121	117	122	
3	117	114	169	
3	80	70	146	
3	123	128	135	
3	134	128	170	
3	159	48	138	
3	134	135	128	
3	163	152	171	
3	158	157	66	
3	154	148	140	
3	151	153	148	
3	69	146	70	
3	172	44	146	
3	9	78	8	
3	161	40	102	
3	90	92	85	
3	116	78	9	
3	92	94	125	
3	5	79	3	
3	164	31	30	
3	19	37	95	
3	173	16	174	
3	164	175	96	
3	17	19	96	
3	53	165	176	
3	53	32	27	
3	118	86	50	
3	175	17	96	
3	176	177	178	
3	118	36	179	
3	78	116	124	
3	180	3	181	
3	169	114	127	
3	114	112	126	
3	134	170	132	
3	133	132	136	
3	44	80	146	
3	146	136	172	
3	82	59	80	
3	152	151	171	
3	64	66	157	
3	80	59	70	
3	64	163	149	
3	170	101	159	
3	136	132	172	
3	85	92	116	
3	124	116	92	
3	97	164	30	
3	166	168	63	
3	14	87	20	
3	87	93	97	
3	117	47	122	
3	47	169	138	
3	101	170	128	
3	142	182	159	
3	132	45	172	
3	149	163	183	
3	31	96	95	
3	162	166	63	
3	184	93	13	
3	97	185	164	
3	156	154	82	
3	141	127	186	
3	142	141	187	
3	44	172	45	
3	152	163	157	
3	163	171	183	
3	103	93	184	
3	53	72	32	
3	154	188	151	
3	189	144	143	
3	185	175	164	
3	175	190	162	
3	118	179	86	
3	125	179	124	
3	109	107	130	
3	126	129	191	
3	161	180	40	
3	127	126	191	
3	169	141	138	
3	141	169	127	
3	125	86	179	
3	180	181	192	
3	193	194	195	
3	196	194	197	
3	149	183	160	
3	143	145	160	
3	167	176	165	
3	162	17	175	
3	198	178	177	
3	72	53	176	
3	118	34	36	
3	185	97	103	
3	126	109	129	
3	186	191	199	
3	180	130	40	
3	130	180	200	
3	161	4	3	
3	129	199	191	
3	138	142	159	
3	45	182	201	
3	130	200	129	
3	192	202	199	
3	202	186	199	
3	129	200	199	
3	142	187	201	
3	191	186	127	
3	180	192	200	
3	199	200	192	
3	180	161	3	
3	142	201	182	
3	54	67	168	
3	203	204	198	
3	79	5	8	
3	78	124	205	
3	182	170	159	
3	151	188	171	
3	185	190	175	
3	204	206	205	
3	201	43	45	
3	43	81	44	
3	207	206	204	
3	57	56	208	
3	44	81	80	
3	209	201	187	
3	35	72	178	
3	57	208	103	
3	13	16	173	
3	183	210	211	
3	141	212	187	
3	45	170	182	
3	213	214	215	
3	205	79	78	
3	216	156	217	
3	45	132	170	
3	196	197	189	
3	218	56	219	
3	178	198	36	
3	188	156	216	
3	220	211	210	
3	57	103	184	
3	204	179	198	
3	165	53	54	
3	221	222	223	
3	209	224	225	
3	43	217	81	
3	226	212	202	
3	214	227	228	
3	211	160	183	
3	210	171	188	
3	226	192	181	
3	193	215	214	
3	3	79	181	
3	205	206	79	
3	186	212	141	
3	212	186	202	
3	173	229	13	
3	167	177	176	
3	72	176	178	
3	206	226	181	
3	213	227	214	
3	217	230	216	
3	196	195	194	
3	231	232	223	
3	227	213	220	
3	206	181	79	
3	187	212	221	
3	173	174	2	
3	13	229	184	
3	174	233	2	
3	234	235	236	
3	196	189	143	
3	233	0	2	
3	160	237	143	
3	237	195	196	
3	1	0	238	
3	173	2	229	
3	177	203	198	
3	198	179	36	
3	239	190	185	
3	35	178	36	
3	192	226	202	
3	195	215	193	
3	188	216	210	
3	220	210	216	
3	213	237	211	
3	154	156	188	
3	124	179	204	
3	221	212	222	
3	240	219	55	
3	54	168	165	
3	196	143	237	
3	195	237	215	
3	55	1	238	
3	167	166	190	
3	2	1	229	
3	1	55	57	
3	190	166	162	
3	204	205	124	
3	241	208	56	
3	242	167	239	
3	223	222	243	
3	156	81	217	
3	160	211	237	
3	213	215	237	
3	183	171	210	
3	228	193	214	
3	219	244	218	
3	56	55	219	
3	184	229	57	
3	57	229	1	
3	220	213	211	
3	245	246	247	
3	230	220	216	
3	220	247	227	
3	248	247	232	
3	228	227	246	
3	55	238	240	
3	249	230	217	
3	247	249	232	
3	166	165	168	
3	221	209	187	
3	43	225	217	
3	209	43	201	
3	247	246	227	
3	190	239	167	
3	207	204	203	
3	208	185	103	
3	242	203	177	
3	207	250	251	
3	240	244	219	
3	252	218	244	
3	224	209	221	
3	217	225	249	
3	43	209	225	
3	241	242	239	
3	167	242	177	
3	253	242	241	
3	56	218	241	
3	212	226	222	
3	249	225	224	
3	234	250	207	
3	239	185	208	
3	231	223	243	
3	224	232	249	
3	252	254	218	
3	241	218	254	
3	253	241	254	
3	239	208	241	
3	206	207	251	
3	224	221	223	
3	223	232	224	
3	248	245	247	
3	234	207	203	
3	250	255	251	
3	251	226	206	
3	255	243	222	
3	249	247	230	
3	220	230	247	
3	203	242	234	
3	235	242	253	
3	255	222	251	
3	226	251	222	
3	232	231	248	
3	245	256	246	
3	228	246	256	
3	242	235	234	
3	234	236	250	
3	255	250	236	
CELL_TYPES 429
5 5 5 5 5 5 5 5 5 5 5 5 5 5 5 5 5 5 5 5 5 5 5 5 5 5 5 5 5 5 5 5 5 5 5 5 5 5 5 5 5 5 5 5 5 5 5 5 5 5 5 5 5 5 5 5 5 5 5 5 5 5 5 5 5 5 5 5 5 5 5 5 5 5 5 5 5 5 5 5 5 5 5 5 5 5 5 5 5 5 5 5 5 5 5 5 5 5 5 5 5 5 5 5 5 5 5 5 5 5 5 5 5 5 5 5 5 5 5 5 5 5 5 5 5 5 5 5 5 5 5 5 5 5 5 5 5 5 5 5 5 5 5 5 5 5 5 5 5 5 5 5 5 5 5 5 5 5 5 5 5 5 5 5 5 5 5 5 5 5 5 5 5 5 5 5 5 5 5 5 5 5 5 5 5 5 5 5 5 5 5 5 5 5 5 5 5 5 5 5 5 5 5 5 5 5 5 5 5 5 5 5 5 5 5 5 5 5 5 5 5 5 5 5 5 5 5 5 5 5 5 5 5 5 5 5 5 5 5 5 5 5 5 5 5 5 5 5 5 5 5 5 5 5 5 5 5 5 5 5 5 5 5 5 5 5 5 5 5 5 5 5 5 5 5 5 5 5 5 5 5 5 5 5 5 5 5 5 5 5 5 5 5 5 5 5 5 5 5 5 5 5 5 5 5 5 5 5 5 5 5 5 5 5 5 5 5 5 5 5 5 5 5 5 5 5 5 5 5 5 5 5 5 5 5 5 5 5 5 5 5 5 5 5 5 5 5 5 5 5 5 5 5 5 5 5 5 5 5 5 5 5 5 5 5 5 5 5 5 5 5 5 5 5 5 5 5 5 5 5 5 5 5 5 5 5 5 5 5 5 5 5 5 5 5 5 5 5 5 5 5 5 5 5 5 5 5 5 5 5 5 5 5 5 5 5 5 5 5 5 5 5 5 5 5 5 5 5 5 
CELL_DATA 429
SCALARS Coverage double 1
LOOKUP_TABLE default
1.6507565848093 2.5810060653083 3.0525253645204 3.2881503404731 2.5505843537381 2.8576081682676 3.0008806124217 2.8257536334079 2.7291370175668 3.1722473662708 2.8312084112351 3.0998945654329 3.3416062236988 2.8543098609864 2.9187559568286 3.3644283435188 2.5489312721929 3.0089889589576 3.1422424222349 3.3265905901478 3.0054126932975 2.2351579911355 3.2850510968182 2.6189478827326 3.2707812538705 3.4696259280128 2.6458758367777 1.3587367248851 3.2415419432018 3.3863066257939 2.830634059805 3.490919217096 2.9736954685419 3.0824690391536 2.7732545835636 3.0779461416594 2.8214117193906 3.0794679849267 2.8063765369162 3.1946471578629 2.4632130123981 2.4220954407238 3.0502445755927 3.0280575730811 2.5115739635481 3.1361073464925 3.0603565828089 3.4505065057947 2.4287791805991 2.9062823923725 2.7977721188157 2.9769148547667 3.300166813786 2.6867339343845 3.405376593743 2.7007711599762 2.8749910564675 2.3521489920465 2.7084715081398 3.3313473549866 2.919900928463 3.0558111819649 3.3766793663782 3.1291574431878 3.0151870150594 2.9141149313642 2.0577557601159 3.1412944072488 3.4392630432569 3.1362395382924 3.5429433736546 3.057964399954 2.6886692145027 3.0865340027005 2.7263089622926 3.0271681968631 3.1957997906269 3.4837599509225 2.7459252552802 3.210121468292 2.7877839792876 3.2942167807859 2.8783958307646 3.0856467088654 3.0874484649504 3.5261535941027 3.0421030102201 3.4741338802677 3.1102133651034 2.6390787062873 3.0064982335803 2.6152508014853 3.0841297691432 2.7084302625473 3.0633953594341 3.351505458385 2.6691876506602 3.4174167660359 3.4057518087371 2.5336410987517 3.1697116949106 2.7983782101944 2.2642485439343 2.1370238061062 2.8068141751861 2.9080553995069 2.9380457961189 2.9516456779192 2.8961751083126 2.4259849916346 2.6262641776421 3.1902583906102 2.6015949053667 3.2821607994598 2.5196079302061 2.9612228994977 2.5713887650228 2.2820906846138 2.2049502417485 3.3662420906052 2.5391235907949 2.5939432338832 2.9769151613507 2.735667778595 2.0139555401245 2.9083613708778 2.7500227605336 2.7506617180746 2.3791291327703 2.7831087811139 3.0071362887506 3.1320563647604 2.9319398413055 2.5341169095101 3.2805863252802 3.0965748194156 2.5724379131086 2.3403238450232 2.7029811199235 2.2675307747684 2.7690453371473 2.9833298636584 2.6359551956752 2.9501647818709 2.6078194590735 2.8788416567729 2.9189140934919 2.6983714613608 2.993026642672 2.7549599556303 3.1016951386318 2.9075631285961 3.1937228558909 2.9246572240241 3.0681864898855 2.8001591234882 2.9134048684452 2.9322442169753 3.083356074656 2.8235413717747 3.0461604328659 2.8653336491989 2.7492824184005 3.3675496837446 2.8122211997104 2.5645453449915 3.1117951672548 2.2464217849509 2.7894892121496 2.7244285157211 2.9138855687231 2.9641486173118 2.5898714183905 2.7299026328551 2.7828649789785 3.0483868031316 2.6940999383191 2.8094280361292 2.4021687498515 2.5605373660485 2.9167493941345 2.7720086647799 2.3670210242546 2.6161122983188 2.3642905624254 2.7880296769243 2.7977242243541 2.4702368190227 2.08756568494 2.5379768249196 2.5719862904959 2.3304298365625 2.7052180541508 2.7097734327828 2.7314674966269 2.9720072701581 2.5760809371444 2.754583178853 2.5984438076684 2.3556021472172 2.5474685194948 2.7698042317915 2.3468270486016 2.8537327107976 2.7187480975653 2.905268416224 2.7285915833811 2.3548019546558 2.5787749952093 2.572425543972 2.2575453848727 3.0598397730371 2.5718466207591 3.0688575188044 2.446912078695 2.4979992812689 2.1882508140793 2.6921743939598 2.5431341872241 2.0987923353802 2.1384603505259 2.4418984208811 2.2476240105963 2.06353178027 2.4380423163809 2.3448225797217 2.0995040260058 1.9659330537929 2.9069915185237 2.4558620639209 2.4802192527317 2.1760407118335 2.3153672821849 2.6474496391329 2.4975482307226 2.8833490677748 2.5233860255017 2.5930973154771 2.4998248974537 2.3740152070852 2.4344799366766 2.5939969013879 2.2373815925658 1.4012429661718 1.6329799957552 2.0036556221869 2.0694988135268 2.1872328558522 2.4668822711805 2.0126215833089 2.6209112802629 2.719145096523 1.9620294746364 2.6340016311416 2.2908487724137 2.6122563490055 2.4920238330631 2.6990285162189 2.4114357958589 2.3951809540135 2.2668034528386 2.5537756013879 2.1560245287624 2.1496485398485 2.4189136008221 2.0522754129282 2.3425601183601 2.3203597941384 2.2894727125202 2.5146858244392 2.2556497765744 2.7160151851843 1.8626221556082 2.5184706682839 2.3641891637601 2.6508161892954 2.2187592365204 2.1110337051761 1.9715058243486 2.1294692965497 2.1646089923118 1.7245580529439 1.3665239776266 2.3688450722524 1.8697986787335 2.4596614285474 1.6194337769709 2.4868343667983 1.8171474614162 1.9073174923739 2.4692414441376 1.3119504691411 2.2792512872332 1.8697703555408 2.5386210060719 1.8101684301097 0.98957777506967 2.1896737649152 2.0481064450482 1.5886374176101 1.77312977056 2.1228509018139 2.5001345209519 1.2000062441669 1.5051433903647 1.953565588876 1.8550683348447 0.99684655838892 1.8720987465282 2.0373723118478 2.0373866888202 1.2485467257579 2.2443165712767 2.0404870449743 2.0173965236711 1.9785234592005 2.1434054020035 1.9910070023616 2.368033412351 1.8841532316163 1.1901579941484 1.6058830203469 1.5628471480154 0.82033895896426 1.2366718407076 2.0348471689662 1.6812234336383 2.1372292937348 2.0387617503071 1.9082446918825 0.86309510386419 1.9920260213465 1.7075853628363 1.8977128807952 1.6490427706554 1.4742465347 2.0152377063158 1.8012915479667 2.2906769330412 1.8821498705184 2.3975334431302 1.9928945518589 1.3489940878651 1.8936944704773 1.6256119640266 1.5504796741799 2.2749629877785 2.2674691646474 1.4782358151839 1.1251989362627 2.5369421581646 1.8422910784989 1.4990514789751 1.377718603064 2.1656395758802 1.7681811234006 1.4949082771271 2.3566112471323 2.182630804663 1.1655322347 1.6039290637391 0.95845654755341 1.9909628804955 1.7515371201685 1.4458302053289 1.9761344029528 1.0613028752665 0.89127537590113 1.1465692490172 1.7835023036404 1.684903515245 1.4193239279867 0.7173402175104 1.4433315944483 1.0860659618875 0.75926840763007 0.86217049771838 1.2093040309173 1.4156969729542 1.0091767925311 2.4568984681814 1.6595342484514 1.7131012432494 1.9059540124986 0.88462678542991 1.9002171901062 1.6724115312811 1.7169842194707 1.5713764605215 1.2223805735492 0.96992597233886 0.65857082173498 1.4732403387025 1.4769780169204 1.7208085428276 1.2542812608595 1.6930266986092 0.94003331902349 0.94584140940011 1.5845362298667 1.3349053692104 1.1994269531112 1.6295175630849 0.78028515576171 1.133688379721 0.59942970618628 0.75519927517435 0.72252240777982 1.3205256404814 1.4778763856954 1.250483291834 1.0530662503646 0.64097578466304 1.3914158435171 1.0058912777752 1.592565334154 0.887245678312 1.1557155200577 1.1953729709554 1.3278387061152 0.87719526445472 1.061080153547 1.3975373501928 0.66112045986972 0.57509383072532 0.62804894260183 1.0353683042829 0.96753552083122 0.87445741928717 
SCALARS Marker double 1
LOOKUP_TABLE default
0 1 2 3 4 5 6 7 8 9 10 11 12 13 14 15 16 17 18 19 20 21 22 23 24 25 26 27 28 29 30 31 32 33 34 35 36 37 38 39 40 41 42 43 44 45 46 47 48 49 50 51 52 53 54 55 56 57 58 59 60 61 62 63 64 65 66 67 68 69 70 71 72 73 74 75 76 77 78 79 80 81 82 83 84 85 86 87 88 89 90 91 92 93 94 95 96 97 98 99 100 101 102 103 104 105 106 107 108 109 110 111 112 113 114 115 116 117 118 119 120 121 122 123 124 125 126 127 128 129 130 131 132 133 134 135 136 137 138 139 140 141 142 143 144 145 146 147 148 149 150 151 152 153 154 155 156 157 158 159 160 161 162 163 164 165 166 167 168 169 170 171 172 173 174 175 176 177 178 179 180 181 182 183 184 185 186 187 188 189 190 191 192 193 194 195 196 197 198 199 200 201 202 203 204 205 206 207 208 209 210 211 212 213 214 215 216 217 218 219 220 221 222 223 224 225 226 227 228 229 230 231 232 233 234 235 236 237 238 239 240 241 242 243 244 245 246 247 248 249 250 251 252 253 254 255 256 257 258 259 260 261 262 263 264 265 266 267 268 269 270 271 272 273 274 275 276 277 278 279 280 281 282 283 284 285 286 287 288 289 290 291 292 293 294 295 296 297 298 299 300 301 302 303 304 305 306 307 308 309 310 311 312 313 314 315 316 317 318 319 320 321 322 323 324 325 326 327 328 329 330 331 332 333 334 335 336 337 338 339 340 341 342 343 344 345 346 347 348 349 350 351 352 353 354 355 356 357 358 359 360 361 362 363 364 365 366 367 368 369 370 371 372 373 374 375 376 377 378 379 380 381 382 383 384 385 386 387 388 389 390 391 392 393 394 395 396 397 398 399 400 401 402 403 404 405 406 407 408 409 410 411 412 413 414 415 416 417 418 419 420 421 422 423 424 425 426 427 428 
SCALARS Resistivity double 1
LOOKUP_TABLE default
153.12669945681 101.94503819969 92.296052785094 65.299909929254 137.04721167218 150.16161571896 137.14465826848 74.675831626434 135.00478181944 94.956874044204 80.657346347333 72.918336436292 35.261177724285 115.32407481497 99.738822779844 213.47634632201 78.039627781396 66.989835170355 66.127823748536 70.817554946764 74.223320778161 118.7159997815 81.83914498972 80.148809353931 126.72884744279 63.215105888929 67.480635997966 228.25099196944 79.525525407777 85.230074651257 95.334401583637 68.815728196848 86.12457559669 88.549602290337 77.192151628291 146.70258755198 84.733338534876 60.019098524552 79.28861768988 85.182552318151 94.479025876058 84.936143171922 83.321274579752 63.634449137042 93.456657061494 52.609093545102 103.17186065165 137.84049315448 113.89629272833 77.831852286435 94.680507168946 76.51852858043 71.140872713372 79.782538276989 49.590759389101 84.583497844075 62.14397196324 104.31330524528 53.010388337403 51.906926625229 106.91142445731 168.06950835272 95.033372239853 73.007260241533 67.437760659588 66.055322027241 122.9668800148 122.53775080215 62.292372211662 63.480559819404 94.88864210269 98.157983274174 63.83585526176 91.109630432556 67.189583476286 94.748217033735 55.50417255302 76.276392541784 74.638650960903 51.280136544481 67.85842373742 165.59660871832 97.570625054088 86.939367299684 78.561661370868 116.98502306281 184.0885172718 149.86116835822 164.28633320498 83.326652953045 40.166050373628 108.30765573583 177.21119946226 112.20045546976 40.54121338483 40.133412948659 69.406330985928 319.44944511732 50.211631549337 82.611925950013 72.343843838607 78.794485467965 112.18586761681 35.983999208333 110.47188871728 71.932004948034 59.33321368877 46.291473001704 101.08433886222 76.019387593628 50.762523312815 63.868227803755 88.820359205801 120.38798504879 79.643171654475 83.10778207856 51.62719814641 87.26486480999 55.042184584756 98.075713063706 32.261746858581 78.917005702249 89.776490268709 97.93144583341 41.8904808493 96.432779776799 35.263111065457 83.394738197097 48.495567240881 72.365024187224 66.64394701979 102.70048337027 77.974385567528 103.5657481562 67.487178428472 130.89615550544 98.486673906202 119.70186050627 95.333026487974 94.725776179865 84.194002751015 57.317249561333 85.716894134666 82.402312560827 55.775564061291 79.848935949608 41.204654013395 87.904951827123 55.259311076129 70.267429007862 132.70494323086 107.45404565814 106.32831203019 108.14958386152 71.932566939911 88.495787775546 127.18566304202 121.52312928109 82.227007057981 96.624286170214 219.41182880707 136.73266805238 86.449657914367 203.24332688379 101.78879616561 88.300379467925 103.91502551365 45.940985394202 26.900715192433 89.778021119627 102.47475639885 91.092901237494 87.750545839705 78.013737272884 88.352945235882 110.09342798153 74.263327355164 76.847179118479 117.08373742769 112.79157562731 68.655849425307 76.987506788198 102.20478080737 80.87953079398 92.658402898964 91.431487240365 81.668340522175 90.343678044156 114.89489391082 94.468603859204 87.518891811676 149.7395685319 121.30789362962 83.76688706858 76.690831424292 50.927022477644 89.865649322729 76.833309931247 78.501944402645 53.089722348149 51.901430757486 81.762008429568 53.367858941566 111.56226935755 70.345794483468 88.619685682451 85.5693753942 113.09161860884 88.742790871817 115.0829264487 112.3218189727 148.55857453369 100.54716204788 132.64308205758 109.89576421581 86.794138612804 43.462967628518 93.112188480175 91.819077422284 117.0114759304 121.6944741181 75.347175201392 135.04865028546 142.64647461178 97.705495079546 41.644077416912 44.829147563353 126.12335036486 118.65531283267 71.307936024154 31.485616084677 112.11897252871 97.318526213822 85.556039680068 91.291881407804 103.28787564493 120.27556218361 106.80627313067 120.23438351052 106.96646359808 117.98551766428 81.747941429131 162.40872137555 104.8319479975 78.634327395305 41.401781973366 38.593028324199 102.76376544536 90.320950418704 129.16444741488 98.456910305852 92.014699770316 134.12279967691 107.828348532 140.40222471224 107.88296633527 124.1594025754 114.26053066639 131.4163975001 99.935517894545 123.71213324649 123.15063186008 166.16921722631 161.12650545981 133.64830894951 149.54359849424 131.22502595713 143.95556193131 147.43364612682 125.86490112139 126.25114573974 73.37067786848 164.7766295126 97.284635879434 108.53887730309 109.59450225719 58.703550797373 112.54569231899 155.0594151983 139.68616037736 120.23736357052 201.21693610574 220.19939937866 96.80794493399 188.41138566103 73.354847271514 173.73874094401 93.004211374689 57.855843403907 177.87966544152 107.34368237488 144.69192269836 116.13748917958 118.41677226978 90.66040708564 64.829032892155 296.25625920417 107.10993412492 85.977548853329 87.177338077528 144.16246569024 128.5740369323 79.577701448178 394.10223024292 276.06334611985 145.45119288628 219.19469460859 216.4919832002 49.946935498309 58.156037476208 191.64970741855 149.29243472597 150.27156484167 147.52317634462 162.35140185242 179.1766210701 104.11369895456 126.21906620433 89.811408609752 216.21755883044 176.44169370468 166.0283222942 89.282305561687 459.36407422495 169.10176802215 173.30077381324 241.28721040892 101.88106566345 115.65471891286 121.30066531809 319.82439793422 49.800556393477 139.18201644424 50.79518800996 83.171445049089 178.62629427811 114.06830612138 163.25054653127 109.59725675997 134.75309556322 83.421055251626 192.55710131136 118.8898268736 78.081855196928 102.51985649732 91.791984428276 73.750864185206 113.0942528742 316.49692324367 264.2045976538 79.933474397777 59.665361376155 104.4051288201 203.19850376869 103.40138610157 140.94681175192 195.77756848211 96.491781060502 124.84486264617 252.99980754332 178.27663719263 453.07816687148 115.46676358677 60.481294335852 112.38315853441 50.433965740412 186.88334801922 311.92254842448 264.0538970572 137.82631650752 156.98930194089 111.74375432197 361.71566886039 158.03430314264 230.015136834 424.3593184613 287.95948137055 234.67182092869 234.85907711745 365.32148847764 87.581683378262 240.62289618463 207.91637706776 182.07744590677 297.07658960157 132.30899158849 205.10693938466 160.55537768812 194.83377830252 300.66216145493 290.21865096683 339.04020396615 296.05615226335 252.68699203131 222.38538003035 246.57202471689 167.7063372232 319.14407276911 301.71816410119 293.90420052037 301.27628270879 293.43743881857 171.77603235299 479.45016164036 366.0453663045 350.04957530988 340.27100497276 347.90164344323 226.46298700319 256.39746439494 372.58211372467 410.43572654138 407.39717993041 251.62679279565 347.01458209992 270.86642238854 446.98119448223 278.81643088832 222.11909395683 252.95884145667 323.65829317414 385.56244570708 330.49644128362 453.05397736729 361.68513465509 337.02540814985 306.13446645835 322.23896338762 342.54798320361 
SCALARS Resistivity_(log10) double 1
LOOKUP_TABLE default