# vtk DataFile Version 3.0
d-2__ created by libgimli-v1.5.0-1-g5991b6ac
ASCII
DATASET UNSTRUCTURED_GRID
POINTS 803 double
8.3333333333333	0	0
8.5	-0.29429712828708	0
8.6666666666667	0	0
21.166666666667	-0.35154628884587	0
21.333333333333	0	0
21	0	0
-0.13949540192174	-0.65832226163824	0
0.26765699968102	-1.1941152153012	0
0.50098922076846	-0.451860121227	0
11.833333333333	-0.28867513459481	0
11.666666666667	-0.84084908820295	0
12	-0.57735026571174	0
-1	0	0
-0.82347194173878	-1.6006755924119	0
21.666666666667	0	0
21.5	-0.55217395360815	0
1.1666666666667	-0.35154628884586	0
1.3333333333333	0	0
1	0	0
1.5	-0.55217395360814	0
23.61842901153	-0.60378553647188	0
24.166666666667	-0.55217395360814	0
23.833333333333	-0.35154628884586	0
1.6666666666667	0	0
8.1666666666667	-0.35154628884586	0
1.8333333333333	-0.35154628884586	0
2	0	0
4.8333333333333	-0.35154628884586	0
5.1666666666667	-0.55217395360814	0
5	0	0
2.6666666666667	0	0
2.3333333333333	0	0
2.5	-0.35154628884586	0
2.1666666666667	-0.29429712828708	0
8.4079889429861	-0.75760412093209	0
9.0144333430414	-1.1439190584088	0
8.8333333333333	-0.55217395360814	0
13	0	0
13.166666666667	-0.29429712828707	0
13.333333333333	0	0
3.1666666666667	-0.35154628884586	0
3.5	-0.55217395360814	0
3.3333333333333	0	0
16	0	0
16.166666666667	-0.29429712828708	0
16.333333333333	0	0
3.6666666666667	0	0
3.8333333333333	-0.29429712828707	0
4	0	0
4.3333333333333	0	0
4.1666666666667	-0.35154628884586	0
27	0	0
26.833333333333	-0.35154628884586	0
27.166666666667	-0.55217395360814	0
3	0	0
16.5	-0.35154628884586	0
16.666666666667	0	0
2.8333333333333	-0.55217395360814	0
13.5	-0.35154628884586	0
13.666666666667	0	0
4.5	-0.55217395360814	0
4.6666666666667	0	0
3.9253443903472	-0.75760412093208	0
29.833333333333	-0.29429712828707	0
30.166666666667	-0.35154628884587	0
30	0	0
35.905165514021	-0.87509566217462	0
36.166666666667	-0.35154628884586	0
35.661339523067	-0.61041034021497	0
5.5	-0.29429712828708	0
5.8333333333333	-0.35154628884586	0
5.6666666666667	0	0
5.3333333333333	0	0
27.333333333333	0	0
27.5	-0.35154628884586	0
35.833333333333	-0.29429712828708	0
6.1666666666667	-0.55217395360814	0
6.3333333333333	0	0
6	0	0
37	0	0
37.166666666667	-0.35154628884586	0
37.333333333333	0	0
10.741322276319	-0.75760412093209	0
11.175685896383	-1.113902458684	0
11.166666666667	-0.55217395360814	0
6.5	-0.35154628884586	0
30.795730030397	-1.0103532830333	0
31.229185900173	-0.87228466782526	0
31.000045632922	-0.57199295442671	0
31.666666666667	0	0
31.833333333333	-0.55217395360814	0
32	0	0
40	0	0
40.166666666667	-0.35154628884586	0
40.333333333333	0	0
6.8333333333333	-0.29429712828708	0
7.1666666666667	-0.28872883340808	0
7	0	0
7.2211097499487	-1.0538354750778	0
7.0053271435993	-0.61041034021496	0
6.7615011526461	-0.87509566217461	0
9.5	-0.29429712828707	0
9.3333333333333	0	0
9.1666666666667	-0.28872883340808	0
7.3333333333333	0	0
39.666666666667	0	0
39.833333333333	-0.29429712828708	0
13.674580112811	-1.7184248716052	0
14.353791495618	-2.0265268011931	0
13.958469529133	-1.3940906823913	0
7.6666666666667	0	0
7.8333333333333	-0.55217395360814	0
8	0	0
12.994672856401	-0.61041034021496	0
5.5920110570139	-0.75760412093209	0
5.8348685364776	-1.5356869134354	0
9.8333333333333	-0.35154628884586	0
9.5718321806872	-0.87509566217461	0
10.166666666667	-0.55217395360814	0
7.33337923226	-0.57364431858631	0
10.36828810089	-1.6552861219901	0
6.6666666666667	0	0
36.666666666667	0	0
36.833333333333	-0.29429712828708	0
37.5	-0.55217395360814	0
24.333333333333	0	0
24	0	0
12.503171480364	-0.86507900392268	0
12.328351644367	-1.416191408927	0
12.778890250051	-1.0538354750778	0
11.5	-0.28867513459481	0
19.666666666667	0	0
19.833333333333	-0.35154628884586	0
20	0	0
9.6666666666667	0	0
20.5	-0.28872883340808	0
20.666666666667	0	0
20.333333333333	0	0
20.905165514021	-0.87509566217461	0
10.5	-0.35154628884586	0
10.333333333333	0	0
9.3280061897341	-0.61041034021496	0
10.833333333333	-0.29429712828707	0
10.666666666667	0	0
22.833333333333	-0.55217395360814	0
22.5	-0.72876886968591	0
22.915493514149	-1.1101467813362	0
5.2020787936337	-1.0219070688786	0
18.833333333333	-0.29429712828707	0
18.925344390347	-0.75760412093207	0
19.166666666667	-0.35154628884587	0
22.666666666667	0	0
22.5	-0.35154628884586	0
13.833333333333	-0.55217395360814	0
14	0	0
16.833333333333	-0.55217395360814	0
0	0	0
14.166666666667	-0.35154628884586	0
14.333333333333	0	0
14.5	-0.55217395360814	0
14.833333333333	-0.35154628884586	0
14.666666666667	0	0
15	0	0
15.166666666667	-0.55217395360814	0
15.333333333333	0	0
2.0948344859795	-0.87509566217461	0
2.2850956781966	-0.60378553647187	0
12	0	0
11.666666666667	0	0
22.166666666667	-0.95506458788032	0
22.166666666667	-0.55217395360814	0
21.833333333333	-0.7287688696859	0
15.5	-0.35154628884586	0
15.666666666667	0	0
17	0	0
20.833333333333	-0.29429712828707	0
20.661339523067	-0.61041034021495	0
9	0	0
14.166666666667	-0.72876886968591	0
17.333333333333	0	0
17.166666666667	-0.35154628884586	0
18	0	0
17.666666666667	0	0
17.833333333333	-0.55217395360814	0
17.5	-0.29429712828708	0
16.258677723681	-0.75760412093209	0
12.833333333333	-0.28872883340808	0
18.166666666667	-0.35154628884586	0
18.333333333333	0	0
17.407988942986	-0.7576041209321	0
19	0	0
19.333333333333	0	0
18.666666666667	0	0
12.166666666667	-0.28867513459481	0
12.333333333333	0	0
15.833333333333	-0.55217395360814	0
20.166666666667	-0.55217395360814	0
19.5	-0.55217395360815	0
7.5	-0.28867513958836	0
23.5	-0.29429712828708	0
21.833333333333	-0.35154628884586	0
22	0	0
26.592011057014	-0.7576041209321	0
22.333333333333	0	0
23.934922518609	-1.0280995368212	0
25.166666666667	-0.35154628884587	0
25.5	-0.55217395360815	0
25.333333333333	0	0
23.166666666667	-0.35154628884586	0
23	0	0
26.666666666667	0	0
26.5	-0.29429712828708	0
23.666666666667	0	0
23.333333333333	0	0
26.166666666667	-0.55217395360814	0
26.333333333333	0	0
26	0	0
24.761501152646	-0.87509566217461	0
24.951762344863	-0.60378553647187	0
24.5	-0.35154628884586	0
33.5	-0.35154628884586	0
33.238498847354	-0.8750956621746	0
33.833333333333	-0.55217395360815	0
24.666666666667	0	0
28.166666666667	-0.35154628884587	0
28.5	-0.55217395360815	0
28.333333333333	0	0
25	0	0
24.833333333333	-0.29429712828707	0
27.761501152646	-0.87509566217461	0
27.951762344863	-0.60378553647187	0
29.333333333333	0	0
29	0	0
29.166666666667	-0.55217395360814	0
25.833333333333	-0.35154628884586	0
29.947484315848	-0.62869436758688	0
30.409983486194	-0.76921735210505	0
34.166666666667	-0.72876886968591	0
34.166666666667	-0.35154628884586	0
25.666666666667	0	0
35.445556916718	-1.0538354750779	0
35.333287434407	-0.57364431858632	0
29.666666666667	0	0
29.5	-0.28872883340808	0
26.834868536478	-1.5356869134355	0
30.833333333333	-0.28872883340808	0
30.671365010853	-0.57276869068256	0
27.666666666667	0	0
38.204670056311	-1.4270134762662	0
38.601589185276	-1.0280995368212	0
38.094834485979	-0.87509566217463	0
28	0	0
27.833333333333	-0.29429712828707	0
36.662074300781	-0.56642454030296	0
28.666666666667	0	0
31.746636025369	-1.1187108767801	0
28.833333333333	-0.35154628884586	0
33	0	0
33.166666666667	-0.29429712828707	0
33.333333333333	0	0
34.5	-0.55217395360814	0
34.731644951192	-0.92970615345739	0
35.666666666667	0	0
35.5	-0.28872883340809	0
30.333333333333	0	0
31	0	0
31.166666666667	-0.28867513958836	0
31.333333333333	0	0
38.285095678197	-0.60378553647188	0
37.833333333333	-0.35154628884586	0
30.666666666667	0	0
30.5	-0.29429712828708	0
36.5	-0.28872883340808	0
33.666666666667	0	0
36.41952417611	-0.77749898599357	0
38.5	-0.35154628884586	0
38.833333333333	-0.55217395360815	0
38.666666666667	0	0
29.657657699283	-0.83081436360664	0
40.168201869811	-1.5356869134355	0
40.5	-0.55217395360814	0
39.925344390347	-0.75760412093211	0
32.994672856401	-0.61041034021495	0
31.5	-0.35154628884586	0
43	0	0
42.666666666667	0	0
42.833333333333	-0.29429712828707	0
43.404176293252	-0.42323554094762	0
35.88498281448	-1.5034830799843	0
41.166666666667	-0.29429712828708	0
41.074655609653	-0.75760412093211	0
41.5	-0.55217395360814	0
41	0	0
41.333333333333	0	0
34.333333333333	0	0
32.166666666667	-0.35154628884586	0
32.333333333333	0	0
39.5	-0.55217395360814	0
39.333333333333	0	0
36.500673817427	-1.6307728168531	0
40.833333333333	-0.35154628884586	0
34.666666666667	0	0
35.333333333333	0	0
35.166666666667	-0.28867513958836	0
35	0	0
36.333333333333	0	0
36	0	0
12.333333329009	-0.57732068917697	0
37.666666666667	0	0
7.9035368819631	-1.2622568520387	0
28.737635378193	-1.2311528923644	0
29.212976838479	-1.0424777721347	0
28.833333333333	-0.7287688696859	0
12.66662076774	-0.57364431858631	0
38.166666666667	-0.29429712828707	0
38.333333333333	0	0
12.5	-0.28867513958836	0
39	0	0
39.166666666667	-0.35154628884586	0
20.347766676375	-1.1439190584087	0
19.833333333333	-0.7287688696859	0
40.666666666667	0	0
42.5	-0.35154628884586	0
10	0	0
18.5	-0.55217395360815	0
41.666666666667	0	0
23.428167819313	-0.87509566217462	0
42	0	0
42.166666666667	-0.29429712828707	0
42.333333333333	0	0
42.744785246826	-0.77776727251482	0
41.833333333333	-0.35154628884586	0
38	0	0
41.542494325991	-1.1832128457714	0
2.6015891852757	-1.0280995368212	0
13.258353909981	-1.6064355191183	0
4.8333333333333	-0.72876886968591	0
15.5	-0.7287688696859	0
15.8687454603	-1.0219070688786	0
16.501535203144	-1.5356869134354	0
14.833333333333	-0.72876886968591	0
12.666666666667	0	0
17.797921206366	-1.0219070688786	0
18.166666666667	-0.7287688696859	0
36.905165514021	-0.87509566217463	0
32.666666666667	0	0
32.5	-0.55217395360814	0
34.833333333333	-0.28867513459481	0
34.999999995676	-0.57732068917696	0
34	0	0
35.169838147031	-0.8650790039227	0
42.285095678197	-0.60378553647188	0
41.877780449001	-0.80261564071807	0
13.238498847354	-0.87509566217461	0
11.333333333333	0	0
11.697267761921	-1.4738194081615	0
12.166692603518	-0.86967323340335	0
3.1666666666667	-0.72876886968591	0
11	0	0
18.535412126967	-1.0219070688787	0
25.833333333333	-0.7287688696859	0
25.268255851942	-1.0280995368211	0
28.268255851942	-1.0280995368211	0
[...]
CELL_DATA 1424
SCALARS Coverage double 1
LOOKUP_TABLE default
2.850073072943 3.1125407675549 2.0183607857801 2.5788273406978 1.804119871301 2.9700955098636 2.8219269172766 2.305730114499 2.7241388846424 2.5948465322062 2.7998120881491 2.404389018822 2.8447269068176 2.6371833055767 2.6764188623693 2.5996765393 2.4649526516238 3.2386839851374 2.6022939700399 3.2263042849416 3.2720941338222 3.2415026853229 2.9229879148584 2.9615350627194 2.9418335553228 2.9416480167225 2.9410466903501 2.8557743620481 2.5232171631877 2.9215298108308 2.9894200867878 2.6387988295935 2.749853863784 2.9623736058736 2.8672232411694 2.7251442174859 2.9645707316064 3.3172353185862 2.4828163347574 2.7055440595375 2.6401147370674 3.0214034166024 3.143542684583 3.2589651129085 2.8158283596964 2.4497839798513 2.8459587579395 3.2791789553039 3.2722569106244 2.1423879228399 2.9731117643441 3.0528093496587 2.6883188197553 2.3601379537948 2.7887429287005 2.6192339281581 2.4953638002606 2.4224680106792 2.8642409127563 2.9361181240826 3.3318001046535 2.8543911566428 3.1195206019182 2.3581218430372 2.5966727297425 3.0795039544169 2.9803639089901 2.8953854689563 2.6446558429637 2.771467479923 2.9145152016745 2.6985743981885 2.8084085275559 2.5818179620365 2.4002832676842 2.7155465329607 2.8071940876748 2.7182429920401 2.442141194793 3.0038694808838 2.7412434435548 2.5772652835151 2.7152455833356 3.0685230047722 2.584963576606 2.7569403469814 3.0117762700593 2.8563867934601 2.8285101356763 2.3201162361683 2.7612708886378 2.4148154966028 3.0586691290665 2.6223957650402 2.5016136677777 2.9331146615626 2.3495256300176 3.020595856894 2.7193338586829 3.0290746248616 2.622396496311 3.0720423908825 2.6433885424782 3.0023688904386 2.8176174629995 2.6864563395506 2.7956985677995 2.7446756292194 2.822467099079 3.027872977107 2.6217913284985 3.2313093523313 3.2693249634865 3.056636828633 2.6221157995225 2.8520747468529 3.1520693660613 2.7672094420161 3.1509934867598 2.8646723532664 2.7314820607594 2.8605890039674 2.9253672619606 2.7705452253833 2.7000891027385 3.0643932894728 2.7148742080384 2.7999180252372 2.8987898765467 2.793798862032 3.3203090670643 2.72175471932 3.0298844574094 3.2682604829472 2.6251598998764 2.9054550502743 2.8583205235882 2.9385204091523 3.1915241535184 2.8889853779005 3.165254370476 3.0969279911751 2.7109019558003 2.7066126703009 3.0744912487622 2.9294700051232 3.4017065827644 2.9766751900873 2.7328006095465 3.1916585423553 2.8310493102734 2.7287336957 2.9906136766026 3.214534162352 2.7771872605417 3.1854990490575 2.5743537223108 3.0430454144826 2.9623419446033 2.8191924351697 2.566518341507 2.803323374017 3.0953980072324 2.3201048277491 3.4015380115544 2.9835745939492 2.7410814510857 3.0657488927282 2.6019169409423 2.8482124883084 3.2200975813012 3.1613620094921 2.9007688113988 3.2063567909215 2.6454354527421 2.8988004170965 2.6480742158003 3.1790195477984 3.2154943854671 3.4086287494273 2.591464801005 3.0905687522402 2.9579569522276 3.091773783045 2.9711357351218 2.8730678572188 2.70206385562 2.7509995463245 2.7191040925828 2.4060613752466 2.7645074671416 2.7316542494935 2.8631236376133 2.9215534782206 3.0830912218808 2.2923427447841 2.4303270658308 2.777164244397 2.473083595643 2.9838723539913 2.9252794771046 2.8333943481673 3.1851381093213 2.9028466387513 2.3123305598119 2.5038919373459 2.6234023241186 3.0479381721106 2.7153625219452 2.9490156330689 3.203956191021 2.9497921861874 2.6466172997439 3.1259120394685 2.6391906676384 2.9547483389951 2.7682306777514 2.6764402755409 2.7391505935152 2.4365312292895 2.8549110490796 2.5559442472545 2.5407124892623 2.6470814116613 2.4846296621472 2.8201063962017 2.8261473472579 3.0788187957003 2.8716382649774 2.7265874011263 3.0522379428867 3.1109951488758 2.5309668426663 2.8614596650996 2.5156015132632 2.8712695046305 2.696239064202 3.236888711276 2.9122030165722 2.9568784165342 2.8358978697387 2.6831176076424 2.7075915443246 2.8626115387371 2.6614963737663 2.9769281557445 2.8477846888478 2.1543225581204 2.7118360894796 2.7416480719156 2.94849849612 2.5899658286511 2.7035767848232 2.6181179518838 2.7673597896395 3.0784627676236 2.640631726197 2.8897038148411 2.3043115757746 2.4649387453754 3.1499320663654 2.3130043485865 2.6315237450559 2.7752600573719 2.5714888553074 2.7983265166366 2.5227208073022 2.6026395876259 2.7045371759597 2.2679398713837 2.5410578721236 2.6422881386988 2.5333350975612 2.5422960524236 2.4634179191112 2.6294299497736 2.7438844856849 2.7912518397589 2.6124997511618 2.6179062520492 2.781996602157 3.2369942075991 2.881341421423 2.5177305079073 2.6490664636059 2.6274837457776 2.7419106627687 2.6880014131003 2.7641680873577 2.8335445528452 2.6685508039904 2.7786019608576 2.7951949969794 3.4186362966847 2.8512137290924 2.8915091429492 2.7320483097676 2.7978493863803 2.8251634242433 3.4155931776485 2.862987741766 3.0039553403761 2.733271963185 2.567379979452 2.9488343803892 2.7579313764341 2.8144581511271 3.4086839377509 2.9346353813741 2.9332935199013 2.9231864020877 3.3647877656744 2.6673857829695 2.785356905447 2.5910541939391 2.3957721813971 2.895849702573 2.5979855291047 2.6800177323824 3.0958141707338 2.6997418203968 3.0241461199304 2.8059623608444 2.9998163234165 2.3018941546146 2.4032566529218 2.5688321906626 2.5476424048438 2.6393607843816 2.7495129663381 2.5810768518964 2.4936787898235 2.5965576005147 2.8114105649083 2.7678409124038 2.8986943089905 2.3700885719946 2.2560703993253 2.854764698043 3.2797034534385 2.9652603254516 2.7946301077936 2.6449924802021 2.660862172055 2.6178273313495 2.7402328428973 2.6545742124455 2.8435460111452 2.6801735504223 2.6598240546737 2.9049963289781 2.5412268743823 2.2774322072445 2.5720075110464 2.5035036748602 2.3396736949755 2.6900344174624 2.6922591686442 2.4062854880026 2.9381204940371 2.6172118909838 2.4809864086361 2.5452209519319 2.6395211614827 2.5544685441541 2.6285158800244 2.4028092209748 2.8457044656 2.7466361267525 3.0023445676638 2.6990797801423 2.6448573976659 2.6904261230535 2.8770852426891 2.7660666930209 3.0205540627245 2.7300921475677 2.9069904504545 2.8857541032123 2.6615484385262 2.7342897532959 3.0327092248856 3.2217893568226 3.1568173993513 2.5894226372814 2.7633064398184 2.8063796864641 2.8658557984297 2.5428301967747 2.7291637139877 2.9041322698715 2.6939409464547 2.6078343983253 2.8065266022597 2.6126785417607 3.4204845208966 2.4836276191746 2.5464104076675 2.3712310372495 2.6055912102257 2.2965280089106 2.4592191583184 2.3186993993456 2.3696628628874 2.5487692459884 2.3414229193462 2.3211569281766 2.8783868277506 2.4579887356768 2.5241091632333 2.6019831064573 2.6680408397892 2.5514403159315 2.6378966542636 2.5044841443168 2.706447733715 2.6723875512361 2.2741367643812 2.5103766118544 2.5429706752521 2.3858720887302 2.0181371596958 2.5283055128393 2.5833607805733 2.7564547612469 2.6227620738136 2.7664801905241 2.6379292569757 2.2526381035758 2.7622869918358 2.5833368320317 2.7147058597196 2.5489185664337 2.8653939776355 2.5607044579631 2.8817928404054 2.5797666156342 2.2684194259037 2.2633802500226 2.6803459727115 2.6850459759142 2.7715887977954 2.5539533397816 2.4111540327167 2.2173145314302 2.8095169807541 2.6233286217456 2.8328954972329 2.6396816521699 2.6801048403383 2.4434853142213 2.4637152880315 1.9156420529803 2.553385740643 2.42235358702 2.0504204298345 2.2225584425787 2.4327782768803 2.4708306902347 2.4900796687269 2.544080194927 2.8945758060069 2.4583242475433 2.2289279949839 1.9753124792249 2.1568372268172 2.6380633411056 2.4102008674983 2.4300736923216 2.1052765972123 2.6699624430482 1.8418890626468 2.7296662338311 2.5226216045912 2.5438019425168 2.4970373772471 2.7523080209409 3.2865366445308 2.3879581875291 3.073224374132 2.5196259819759 2.5341213308188 2.5571782890332 2.6120602218773 2.387425558589 2.5983099892515 2.5238289608908 2.546754193665 2.2653575085614 2.6361816170887 2.4790124058661 2.6584137253638 2.1097016613385 3.0806355765048 2.5381651252274 2.4671098005703 2.3137582227077 2.3995999484325 2.5312646177532 2.6323738643041 3.0147811859702 1.7790364608142 2.6884255793728 2.6182518831312 2.3550514869561 2.4607132550876 2.0716353982397 2.1844837818075 2.5420977895778 2.2907671171412 1.9063381311544 2.4712820744567 2.3789348556579 2.8063338850134 2.1498007301494 2.3462824482489 2.3061256198056 2.3780762837109 2.0624194556025 2.103791688477 2.4950605428075 2.6512167994941 2.5009143830231 2.4562670252346 2.2964436839858 2.3354556370196 2.0285918075456 2.4752028344687 2.2350641807087 2.2307145156742 2.4994830020462 2.4045876245939 2.581421949967 2.3788335180317 2.1865441434134 2.5252219046183 1.8683391269349 2.1941529612919 2.4279292903837 1.662247570642 2.2913429830676 2.2848603115674 2.5333163851029 2.3632992873763 1.8457364668539 2.5489948723953 2.5169870504303 2.5893748298043 2.6033286774456 2.4608535170207 2.3819319287007 2.454696471165 2.4417989861645 2.4558594936787 2.1408105478461 2.0428531857184 2.617709772652 2.5151901076278 2.3479334821543 2.4266575196867 2.3418564564842 2.6677494368628 2.4056058437677 2.2761355115912 2.2394857010819 2.2721015518239 2.3980995933192 2.5478621628305 2.9610926026865 2.6110661602924 2.0414486793172 2.4873028921326 2.8273369662602 1.9978183289922 2.4204875296772 2.4218063367143 2.3175145298999 2.3148698923084 2.6316535753627 3.0466771365464 2.406616558115 2.3523745213969 2.3493255762764 2.3903651735538 2.6977018755376 2.4705999359865 2.1902998732475 2.1859411533658 1.7173906518585 2.1324170408899 2.206679987552 1.7354473070375 2.7547471095445 2.6216515533652 2.3459916394645 2.2843488809989 2.6946123243016 2.6084449470123 2.0149360472745 1.327345474042 2.2758833420542 2.3344197255121 2.1457087079573 2.8251121619016 2.0582785270019 2.0417454747069 2.5355272757602 2.7303805549731 2.4439446658403 2.3343300403696 2.417499394074 2.3479894559587 2.1933497621792 2.4683611979794 2.1779518381744 2.3437861349202 2.4892518937188 3.1999708973161 2.1694190422256 2.028066749592 1.9866763909941 2.2029109300681 2.1434288578854 1.990074794809 2.2015494681998 2.2593800886948 2.3156091497075 2.0857713548002 1.991886702584 2.4964308794449 2.4326311551525 2.5943331869241 2.3119053302923 1.8670807673332 2.4164197104869 1.7233540118999 1.6377498482476 1.9139723430444 2.3442762789678 2.6993936904229 1.9983031806613 2.6974184323231 2.1437469610829 2.1577846164097 2.0268989470706 2.266903594067 2.0354361241726 2.5019421856737 1.9270967365529 2.288255686944 2.1010561097497 1.6976721709785 2.1304531517755 2.1724928056554 2.2815511555623 2.2382231952563 2.298029296438 2.0964566450698 2.3836428743098 2.7476866496074 2.0760516021833 2.3158064622154 2.2080821932185 2.163691300691 2.3636446290362 2.129669255249 2.1543276583521 2.6553616761102 2.4386665280372 2.1596510485584 2.8499614762459 1.5796053807113 2.0255021267643 2.6839605279653 2.1307332522646 2.3244066476692 1.2900956391085 2.0791147392139 2.7441714126763 2.187232864049 1.8334970384951 1.9666076434913 2.3117327248891 2.1235735761343 1.8875379203151 2.1339077206065 1.9526780940138 2.0843105537229 1.9400346311102 2.3320840154817 2.0969156878614 1.8917537031364 2.1054604215085 2.093453974845 2.1646963895355 2.0535811535093 2.0838464086868 2.8944271018087 1.9837219590545 2.1709934948624 2.3397500379054 2.1760132431527 2.0306686570111 2.2368028667117 1.7861672411665 1.9719056751147 1.8646776155463 1.9284136242883 2.0862770524655 2.6945597863478 2.3210391010242 2.0189982279253 1.783539411627 2.3930798486924 2.0503419272416 1.3530385492324 1.8172534207451 0.61376575271881 0.78923176614737 2.0358665117335 1.992865890067 1.8737275217957 1.4354318448215 2.1038108812832 0.9010254543899 2.5008236318385 2.6688957272423 1.9832785489682 1.4764284319915 1.2511602592552 1.8805581886988 2.5079202767913 1.6459642850668 1.7978809155438 1.8621526996814 2.452804964874 1.8417297069876 1.8950759295865 2.0278789234782 1.7018321280945 2.1654291104103 1.9322661326254 2.0917374820868 2.0268672317398 2.0668581438101 1.8593109650229 1.6154519549578 1.9971959605226 2.2902481794425 1.6063107747868 2.4655796660627 2.5967758294708 2.4557136051867 1.9082799671525 2.3112150423756 1.6554479566864 1.6010945397737 1.7224431088107 1.662121031677 1.8887931065152 2.1352960735927 2.1732037560876 2.8668196059448 1.7374370967923 1.7250219253976 1.579943736458 1.6569932359146 2.3926639464102 1.9822958688936 1.7913162208075 1.9876261144179 1.7643825797993 1.4205210512715 1.394732453316 1.9962582916416 1.6147843935019 1.5288002247183 1.6058424588562 1.8593941025892 2.2568982145371 1.295272164694 1.9081723430547 1.192284409989 1.4519197615752 1.6060508833387 1.9669742746072 1.7166460418314 2.2430002002641 2.0733547256817 2.0544457105398 2.1465806452706 1.7316202541083 1.9071525421163 1.8880514146164 1.7483847085198 1.8856464314069 1.9734271169757 1.5415803909938 2.0487399863107 1.8042512171164 1.7034387516448 1.8448435859113 1.9002221342166 1.8971781995211 1.1976254303322 2.0355705108431 1.70542979282 1.7982009164329 1.5028846595355 1.8300677321458 1.5430112164924 1.5061630847443 1.6991294335253 1.7390120810446 1.5413896493916 1.7413639988136 1.6275491186262 1.3692886831996 1.5043695372623 1.5812380264251 1.2327547432026 1.7358035982712 1.3341420932868 1.7592206109057 1.5667196033361 1.6184141035205 1.3069908212508 1.3926232615761 0.95303935566426 1.2253148804628 1.4231334452931 1.329634209303 1.2310319162516 1.5420931153147 1.4411575678491 1.616473397387 1.1408783519871 1.7750814491326 1.9455991923111 2.0830013430084 1.7192938226614 1.4887912894936 1.5522679301332 1.6503166306378 1.4839074985416 1.3768385689172 1.9258736380417 0.98818954200782 1.532692308119 1.6174970001682 1.820018979918 1.7256868897583 1.611206202338 1.4991801829038 1.4729967334933 1.2561092126677 1.1362625379053 1.3058599828389 1.5046369596529 1.3752106708015 1.5117511922702 1.1622805195945 1.8185960371486 1.452915177409 1.7428781683635 1.8153137243285 1.3687942881934 1.3537867029556 1.6440621784859 1.6514098401047 1.3272393844668 1.4606553459167 1.3774467992686 1.5155921886354 1.3267924577814 0.80429106394025 1.2727998124703 1.5791611603863 1.2956663558639 1.070438222471 1.5073932975723 1.3579682877023 1.2908859159186 1.1824719035678 1.5083200162646 1.0897590712379 1.2341060637343 1.2623548519013 1.2600336352744 1.0718594969028 1.1853469054908 0.73007670107844 0.93327038360444 1.0737818814541 0.93220394852597 1.296883441541 1.3712447403825 1.2646850623241 1.0139773664151 0.78058769438106 1.0833437769863 1.1221434417689 1.6543843325879 1.2678426767406 1.128028466797 1.0083526275141 1.197263777064 1.0388765268297 1.2626718973777 0.47545952836475 1.14138801665 1.5373579415321 0.94017399386666 1.1316777180836 0.75299684030662 0.81882307209639 1.043797354115 1.270119627336 0.91669672582899 0.9620736875907 0.96041423578035 0.666174488704 0.94935776806991 0.49606026839932 0.42745882840651 0.48388107281825 0.63070747253932 0.81107532056868 0.86093612655926 0.85040458828316 0.74728604489262 0.7957478193325 0.8795951927351 0.88392868200729 0.41532930063833 0.75756854045821 0.95256531108363 1.650978883533 1.7060068672993 1.2008671530184 1.3908889342274 1.1169725467084 1.2342875389982 1.1952259431583 0.69142707213323 0.796599441561 0.65376035509716 0.6661190081759 0.67515906243843 0.7843503794347 1.0648785357706 0.68877570612409 0.63003674588 0.75398537329939 0.85103245876813 0.56585606998454 0.541983902815 0.78349602424498 1.4425629763811 0.7920332850188 1.4258952111625 1.1862666436567 1.4744584628729 1.5648104724825 1.4361027273334 1.3936994823209 1.1929140033053 1.309854022801 1.310527759636 0.84433302786343 0.69425375878999 0.51066807254375 0.43014835582394 0.42409928730454 0.89970241597067 1.160544304339 1.0898340084028 1.4032024176824 0.81119817812855 0.90144277348177 0.99949345149547 1.3385498287619 1.0403912617264 1.2885153471205 1.1347923020174 0.94932893736672 0.80718774180216 0.72631879011015 0.55183134609372 0.78090098688993 0.45079810092865 1.0785563635443 1.0875691083592 1.4986031335715 1.1964908550404 1.3022721199226 1.2823756258571 1.5466158823732 1.0854547409495 1.015765971612 0.6379848949813 0.97762773321455 0.91166104452029 0.9816740955762 0.95001014389816 1.1240943377215 0.52350150477124 0.63446500286754 0.71112528512377 0.57433553832684 0.82119142652754 0.48396757954162 0.57545122889017 0.84940225573962 0.94257326955939 1.0879886621051 0.69419716108819 1.2023728183675 0.77430649351479 1.3896174595676 1.0209620108224 0.78815039237183 1.1648685099237 0.95851662553341 1.116157838622 1.0610952103187 0.49385010524126 0.4022972570871 1.0593979660724 0.71038953296473 0.76894962399969 0.65230380104773 0.69326611154769 1.159370543084 0.53426611768853 0.68959865457218 0.87316959661018 0.7451964787243 1.0094884140055 0.93265680858649 0.6182418882844 0.50640109931453 1.1561853690703 1.0790650079661 1.2307377524817 0.91218693615994 0.96674083467523 1.0653603926505 0.98573082015828 0.80706764940044 0.88287705861015 0.99595140887179 0.60101491676255 0.43241446565296 0.85528958369442 0.54537063436336 0.81100214403967 0.82105411313111 0.37995939083664 0.49340875868952 0.54137184073002 0.61367745694036 0.89355129202085 1.0004720095801 0.80228494110565 0.48834529471824 0.90588059456814 0.47470139054498 0.46892053498354 1.0874346720298 0.56210705736018 1.4027368048669 1.2229882407554 0.76556746803225 0.81906094595446 0.54279055864357 1.1914276000557 0.66279857793334 0.60157998942132 1.7196463358639 1.3676096118973 0.64346514643126 0.79783392046792 0.73529438823022 0.5327876473179 0.48838608655684 0.53482569815846 0.44348956266114 0.58466228790911 0.43945754731132 0.50485702278307 0.56379153486207 0.76385977668542 0.63103920365589 0.5626271372787 0.44198019624877 0.69504085443147 0.4839215067903 1.6926164165754 1.3481811707201 1.1836521010251 1.0635821782388 0.50521282290764 0.55860717805533 0.64159965492432 0.474832473442 0.46108599056827 0.61851431381068 0.99445271155739 0.76143087551751 0.72423785992343 0.60316121008671 0.44598715930699 1.1920690052276 0.86609095800305 0.59870297696974 0.4612989588134 0.64649378050718 0.50476693975897 0.53488432486101 0.45067356640567 0.47378939763854 0.61621466667666 0.76841137502947 1.1731055641114 0.67737329447666 0.62531836743607 0.72204018991078 0.82799396134843 0.75445023233884 0.44388283989131 0.68255313628844 0.83068361332593 0.89538200529812 0.93745441054423 1.0088174738818 0.94988621430729 0.84555223641094 0.78168702472202 0.90640319131795 0.66066135495071 0.69652732002564 0.63054472715601 0.88809913927294 0.48486187907564 1.1500134728038 0.84065502925642 1.3134166562754 1.1615252603629 0.75660430820888 0.71431138601623 0.75261077110655 0.58260160164302 0.67786464650518 0.4458645498509 0.91702709123775 0.67722142818465 0.77710014585354 0.91328343384892 0.82228806992823 1.1676250065723 0.69483805047321 0.73498771824128 0.82047222336811 0.79343472813788 0.67678451699213 0.50447392184923 0.57128852850805 0.9401181599256 0.73000437280684 0.98366245672356 1.0742360696822 1.0693149473371 1.4930873592244 0.445275528354 0.59465882284723 0.94362736994376 1.089649837396 1.5919904977014 1.4539236195994 0.86190563835117 0.74591500556093 1.7971795269969 1.6216479616067 1.347627552011 1.5087244931135 1.3079303361749 0.73909209974073 1.5777992143636 1.3198733802366 1.1809239527909 1.2709084555921 1.1134820748341 0.85424718017971 0.93701376425251 1.0957898975354 0.92480650269032 0.93152247968676 0.85344872703112 1.234844818268 1.503500620367 2.0655150454969 1.7584174747602 1.4763626577131 1.2437864996395 1.128726141925 0.72793350133298 1.2310548246404 1.0249110603411 1.3175765002789 1.0232337477344 1.014836407544 0.85645128361837 1.1777868187904 0.81606684347868 0.77169633560391 1.1080684316581 2.0184820015188 1.884655917652 2.0071222931744 1.6208286000087 1.0693163386533 1.3238174141666 1.46930488755 1.3938573230631 1.3391829786319 1.2918440889262 1.2998319465549 1.4425754561774 1.1638146737145 0.9619741801126 1.8678942982765 1.6711004885808 0.70405772224659 0.41134826645137 0.57170117555337 0.47903514645684 1.2406348474892 1.483635466335 0.52936447691762 0.45326671033696 0.536756064