# vtk DataFile Version 3.0
d-3__ created by libgimli-v1.5.0-1-g5991b6ac
ASCII
DATASET UNSTRUCTURED_GRID
POINTS 1483 double
3.3802423101098	12.435481574566	-0.57001420684378
3	12	-0.2857142857143
3.4959596309848	11.998298039034	0
3.2490070092203	12.168560129388	0
6.0395510135596	13.367156253372	-1.2757999763971
6.5930002103947	12.023472734859	-1.2922192071349
5.4998599382803	12.552571297657	-0.59337769664261
5.29662096318	11.932351047571	-1.5392209346082
5.6153020589615	9.1440579133635	-1.0774777831171
5.7237069713611	8.5589744845549	-0.30827017969781
5	9	-0.2857142857143
5.3151026533923	8.4249591108801	-0.38240156963578
2.3178923476779	4.1926464382665	0
2.5373292327812	4.4716333182052	-0.48281884804687
2.3342974478463	4.0018571812202	-0.30572640106363
1.9994701911036	4.4258543307655	0
4.8968211033092	12.507755029533	0
5	12	-0.2857142857143
5.2932790228536	12.494788035524	0
0	0	-0.2857142857143
0.54768630893449	0.55020446432687	-0.60775225926193
-0.16846798780902	-0.24002860812406	-0.65332445545953
-0.28063481777066	0.41453578455018	-0.44890469943706
7.7	3.575	0
7.3102059000399	3.7470939102263	0
7.7	3.6732286664853	-0.53772532608145
7.3176226410905	3.2857280588852	0
-0.7	-0.10798167686939	-0.47517111104905
-0.7	-0.57707899562378	-1.1376990549501
-0.7	-0.61986630133594	-0.43486724047509
6.3962361866998	10.611290418241	-1.3182185489848
6.565939673393	9.5694509864085	-0.57379796778735
7.1295911592009	10.496363016677	-0.48219980545192
6.3839624611364	10.341052129245	-0.35036617584397
7.7	14.3	-2.5
6.7623683783591	12.987112326146	-2.233077027779
7.7	13.059020885286	-3.3539705522597
7.7	13.327367479896	-2.129915020979
1	6	0
1	6	-0.2857142857143
0.93236760237426	6.49128333619	0
1.3454573625665	6.353105459937	0
2	5	-0.2857142857143
2.1684298754346	4.7403793023811	0
3.0226729813355	8.4836106439452	0
2.5164096947204	8.910651700233	-0.41109082170818
3.4071201441719	8.4167381876838	-0.59109415332551
2.5374808587914	8.1383747261781	-0.35604109466584
6.2778911301719	14.3	-0.61136458754231
6.2225356773765	13.691717475418	0
6.5208076177088	13.495118289851	-0.49928801204061
6.7358646795693	14.3	-0.39005656748015
5.7965188279432	13.281940723964	0
5.5320359851605	12.925291312368	0
5.353113789845	13.264183036004	0
5.5919457801018	13.101154188917	-0.33537516396337
7	10	-0.2857142857143
7	10	0
6.5010306427949	10.010760669106	0
6.8196744207924	9.5136576917357	0
7.7	1.1375	0
7.7	1.6430719769933	-0.42557297445049
7.1939383721229	1.4724531054162	0
7.7	1.625	0
6.3572581294301	1.4772201134971	-0.96507376287322
6.5574763981385	0.84898833643366	-0.48332647821142
6.7774291048203	1.7003141153393	-0.4123635555875
6.1433933962903	1.4220674799247	-0.28622251631329
-0.7	9.1984657118068	-1.9278839451739
0.33291529395702	8.3305676904572	-1.2970017952003
-0.7	8.1442617177323	-1.0898260028896
-0.7	7.644268062563	-2.0766032868031
4.508194357046	8.6258793740749	-0.60770874662543
5.0095189690676	8.5009469809039	0
4.7609249278557	8.7686419230913	0
6.2306672701993	2.67753718	0
6.6360398560532	2.4670661479797	-0.44686919005428
6.4910302172834	2.4939022421641	0
6.1550873755842	2.4572757142813	-0.33684154297057
1	1	0
1	1	-0.2857142857143
1.4901571161019	0.99574153349402	0
1.1736530561382	0.72346383359363	0
2	4	-0.2857142857143
2	4	0
1.6440539242474	4.1532454240512	0
7.7	6.9501255673919	-0.74418826283982
7	7	-0.2857142857143
6.7521552376889	6.497772044976	-0.66059363300197
7.7	6.3887218416049	-0.46884913673037
5.9482896260331	7.5800048202495	0
6	8	-0.2857142857143
6.3095291646476	7.6896230263426	0
6.1432247512519	7.3579252770212	-0.41388970597853
3.501272057481	12.437082442362	0
3.3297831413816	12.805427976196	0
3.6823393063421	12.851671876304	0
1.3671388209093	10.633374397873	-0.4152980605108
0.95248763025238	9.835503527633	-1.7808732395437
2.3518021577517	10.495200039554	-0.50930668321109
1.5373497846005	10.021005779616	-0.41781002197689
6.2054585007625	14.3	-1.3884356875417
6.9442913034148	14.3	-0.89278753613404
1	8	-0.2857142857143
0.54167473049383	7.7707286368021	-0.37916050195481
0.44975345341211	8.3808810318019	-0.31136669048163
1.022076618805	8.4121844676845	-0.45670843222423
0.89173681858685	4.6122796653579	0
1	5	-0.2857142857143
1.2386083631299	4.6841794176855	0
1.3923592539172	4.7130963353432	-0.25978315417498
6.4242299347383	5.6840176993625	-0.35514079575845
6	5	-0.2857142857143
6.3424541740313	5.2754910113697	0
6.0447933133998	5.5049876953384	0
5	2	0
5	2	-0.2857142857143
5.5190673049038	1.9208326821789	0
5.2306444928855	1.6547875838902	0
5	13	-0.2857142857143
5.257359886178	13.540476325965	-0.63012071696907
0	6	0
0	6	-0.2857142857143
0.066757795936057	6.5008369551487	0
0.29243888553297	6.1743316976873	0
7	9	-0.2857142857143
6.5033796411008	8.9981073418213	0
6.5607922823332	8.4440251373986	-0.63122800754088
6.811726958696	8.7028726276344	0
7	5	0
7	5	-0.2857142857143
6.4986646723997	4.9192017057136	0
6.7141996182955	5.3303468264748	0
7.7	9.5988491781319	-7.4736716195817
3.1507199964473	10.394874003632	-10
4.8663216648816	7.3792654266676	-10
5.1015502438684	11.553440122249	-6.405163284031
7	7	0
6.9589015254993	7.4884372736447	0
6.761634669635	7.2408783569561	0
6.0574437090791	0.20878539066113	-1.8779478182653
4.9838025543493	-1.3	-2.1179854334408
6.0308685444023	-1.3	-3.5425074203685
6.440522236286	-1.3	-2.0103523001383
3	2	0
3	2	-0.2857142857143
3.0105846506	1.4855923993349	0
2.6480485575569	1.6700894103009	0
5.0527203000088	13.535479310798	-1.5373151531841
5.0246691847863	14.3	-1.036131499603
4.1300067609037	14.3	-1.2024507502556
4.4744197407865	13.547407617085	-0.63586628370479
2.5813517996865	9.6286485974984	-1.0236151505326
2.2955236368793	9.5881134365907	-0.29154811067367
3	10	-0.2857142857143
6.4248505083522	12.522044346884	-0.42559946143008
6.465073985677	12.51782996062	0
6.1644652963082	12.36965297069	0
6.3832046574853	12.135664356038	0
2.9908655166747	12.498069465114	0
1.984703560175	7.5906357794687	-0.50777967523709
1.0508409188237	7.354634772545	-0.95680796450018
1.4515039911109	6.5829264157992	-0.56173008002516
1.3866216751759	7.5118935788728	-0.35488362790971
2.45	14.3	0
2.2168273415577	13.627179222019	0
2.4554693735383	13.497784276817	-0.39727655195048
3.032551925238	13.762466584345	0
6	11	-0.2857142857143
6	11	0
6.4843452951013	10.966514281357	0
6.2440599782187	11.234710090977	0
5.5	-0.5576923076923	0
5.247952850371	-0.29481663567353	0
5.5452342683804	-0.096294524539033	-0.49623355575102
5.1016398375367	-0.61489919294387	-0.38960315167385
2.3232496140345	4.0110297188843	-1.3835068702753
1.6586320571652	5.8268322896535	-1.5213554090482
0.71002746520551	3.976198472286	-1.505315421377
1.3296414347056	4.9089994064226	-0.82629172929831
5.6	14.3	0
4.6510156691765	14.3	-0.56274723813486
-0.090060726359069	5.5363033123106	-0.44581840212762
0	5	-0.2857142857143
-0.38456492153953	5.1805342841446	0
-0.7	5.0205501441189	-0.32507149572551
3	13	-0.2857142857143
5.1848675157348	3.2965660830064	0
5.4046165570399	2.9501485228537	-0.43988698776777
5.486289771732	3.4981838484395	0
5.4682750147717	3.0660382780841	0
0	8	0
0	8	-0.2857142857143
0.5178658825659	8.020802151125	0
0.25864598874121	7.6639427314904	0
6.7098208972434	7.2950601162224	-1.3269022195366
7.7	7.949747446039	-0.91833665053736
7.1577047253729	7.4844276204668	-0.64272934527953
4.5892004575887	3.5369189576522	-0.55981654583505
4.4420188491858	3.4660037233365	0
4.711527897636	3.7375259681419	0
4.3494632088922	3.8023533541114	0
4	6	-0.2857142857143
4	6	0
3.9913416390327	5.4988534517732	0
4.5093195747582	5.724109532591	0
1.4	14.3	0
1.5	13.55769230769	0
0.89284349994875	13.714781914708	0
1.2292962491126	13.670420041977	-0.37788942865261
4	9	-0.2857142857143
4	9	0
4.5502440226935	9.051086551406	0
4.2963154051231	9.3907765114078	0
4.5321110402369	7.5028925212181	-0.60552533206341
3.5085861108931	7.3893844432383	-0.64873189634878
4.0050480592533	7.4977657988521	0
4	8	-0.2857142857143
5.8961095330637	-1.3	-1.0125722125019
4.8982045728458	-1.3	-0.82217786726149
5.2296982103621	-0.31621891710017	-1.0679345669244
4.9010483556055	1.478997710586	0
4.5631533182214	1.9074133665015	-0.41231302454656
5.0320642355688	1.4518180616801	-0.36509190625555
3.5357179442866	0.46434418042464	-0.60031716899974
3.9407498163335	-0.4411178910574	-1.1087857494349
3.2826824657074	-0.47747544834602	-0.50866572047373
2.802260468126	-0.22902113419037	-1.4542342115515
1	13	0
1	13	-0.2857142857143
1.1191337005982	13.329221525091	0
1.4884720276527	13.02962190928	0
-0.21681247778723	8.5792000107362	0
-0.35118339610893	9.0917088673227	0
-0.7	9.0968147603684	-0.35256881313688
-0.7	8.9375	0
0.51662331659314	-0.40156299802931	-0.67799391089861
0.13474046208011	-1.3	-0.85683826964205
-0.16941603187845	-0.57512411281067	-1.4019543009948
6	13	-0.2857142857143
6	13	0
5.8068477026831	12.499749736815	0
6.1890713266052	12.67695534294	0
2.5984255358496	5.4578875982232	-0.67264342113488
2.2172109403706	5.4325217687574	0
2.4824672258873	4.9705265694472	0
2.6598112065826	5.3330483814808	0
-0.7	0.5146532048839	-0.51418317722913
-0.7	1.0492756199945	-0.88024243711367
-0.37698118088761	0.89350663208132	-0.33360419980628
-0.25096134668857	0.95145340086689	-0.90448711690516
6	2	-0.2857142857143
5.4002158317804	1.7678073061348	-0.50898482673054
5.8183999242367	2.5164331321023	-1.0840550371572
-0.13917028340788	5.5182991349521	0
0.31578338747353	5.7567158690792	0
6	12	0
6	12	-0.2857142857143
5.513035862904	11.994753403328	0
1.5285536174902	4.2362319729344	-0.43851980589517
0.57100063419133	12.499134596467	-0.56842257570583
1.2565986295401	13.42724014175	-1.149557674079
1.4486633887383	12.69302170761	-0.31714242590465
6.65	-1.3	0
6.903739311401	-1.3	-1.0953527719967
6.3980205255852	-0.38130956989248	-0.5855507841991
7.2175457166608	-0.5710098692386	-0.51938212652516
3	7	-0.2857142857143
3.5055774955602	6.7395375676091	-1.4094768265058
2.383927159844	7.4535505157878	-1.0620490471275
1	4	-0.2857142857143
1	4	0
1.2222221827385	4.2954008280594	0
0.82345085295407	4.2815033897546	0
5.6	-1.3	0
5.790373644402	-0.65252487431205	-0.38521635467031
[...]
CELL_DATA 5483
SCALARS Coverage double 1
LOOKUP_TABLE default
1.5032594561391 0.74747009690162 1.4077308975338 1.5719768992296 1.4446406233934 0.87765435917209 1.1375962405113 0.66923091459023 1.1129875952813 0.21443270237889 1.8425927727778 1.6620854735275 1.4967447766803 0.72677250139937 1.2482889237166 1.7900566242803 0.97938440985379 1.1463096066839 0.62688362944008 1.6520759562888 1.4401879628954 1.7080026819419 1.8958607188987 1.0696567347677 1.5977402757838 1.3922603074868 1.2421447987295 0.58764662490812 1.3496505417766 1.652941560659 1.5700918109863 1.7543339849182 1.2090232923534 1.7841565442952 1.4829244207058 1.7741463925176 -0.37073962414862 1.8059777838473 0.27293278757253 1.7727683498896 0.62376377625955 1.3721869975838 1.3900175426005 1.4613997269412 1.2901568055295 0.89144500232694 1.8225451835006 1.0350149479251 0.94649490587262 0.57157230049177 0.69245896394381 1.2819534945305 1.3806870086022 1.5287507726695 1.5215282471295 0.95917909276555 1.4991487792317 1.8711069765362 0.86102628319664 1.8381147790187 1.5227484654369 0.63041175535944 1.4243788095357 1.5218986739682 0.73077143891716 1.5840430535876 1.1581046716345 0.63969878976546 1.7140387722013 1.5731290416329 0.83092757237046 1.0921389822737 1.782426983229 1.691020870396 1.5377999065908 1.0360685538093 0.623879288224 1.2735394805248 1.932361304098 0.64279013598903 1.1582651783467 0.80318340490208 1.5127189427628 1.2190997191122 1.4995504182973 1.0001361700706 0.6103097534741 1.847107184456 1.7699808684021 1.5534228100745 1.1830851500412 1.2535733567319 1.2772565730651 1.2159889595984 1.4593526553248 1.6260497065078 1.5843884384036 0.97752420812104 1.6443997284229 1.6761605898733 1.2952494042796 1.8036152950117 0.96425900515078 1.600720492512 1.1203286820714 1.5463495756413 0.318829733346 1.1368003926186 1.8151657637597 1.8855546002498 1.6915929509312 1.2898511459228 1.4809161116074 1.4773405997553 1.160846145839 0.74452434424259 0.94994732625377 1.0199809489166 1.5630492834949 1.2019772922873 0.95903417043843 1.6186403961504 1.2500565729385 0.42999483961551 1.2681413980409 1.7889408100158 1.0599502392308 1.8089789558192 1.3294635644653 1.5429261858355 1.5031667345618 -0.19708426302033 1.0675523166673 1.4203505061548 0.81880118330174 1.5915914479891 -0.39495111966675 1.3551317147952 1.3467010203395 1.8666876507458 0.56198502304432 0.17252615805851 1.792384383981 1.6844669564793 1.5127811264013 1.4212872868485 0.88322776256438 0.70258508006911 0.93822657572529 0.5938661594546 0.37449193217194 1.8644513329579 0.82020272970708 1.2079942740075 1.3986348657509 1.6395573634044 1.4745053767021 1.0527889931664 1.7351671484657 0.78275985381623 1.4299888165474 0.75411769795811 0.96997129653674 1.5902188971506 1.870771627403 1.650718412693 0.60205285480571 1.8154434634935 1.4379013195692 1.8060256693903 1.5897721047216 1.175050173582 1.2891526026635 1.8387450632332 -0.074319337997021 1.8710357546304 1.9216547688444 1.7665863664473 1.6924955829285 0.17843606748166 1.5532735802906 0.41912656239016 1.1201693341067 -0.068603530979136 1.2155516560572 1.8726051514813 1.4007248183584 1.5688551894465 1.8292114318519 1.332690933408 1.8716265287544 1.3331974509071 0.73955702620331 1.604320233843 1.2730680764869 1.0771830197072 1.6432707523805 1.5421606548907 1.4006226128147 1.856399886083 0.55572509540043 1.9299852656497 1.4788575016043 1.5043381034982 1.9300564773529 1.667831424302 1.7044075498052 1.4767804793848 1.0792212472999 -0.42020790921803 1.3769636646271 1.0750644558357 1.1777839391681 1.8913511765533 1.862440641225 1.8758291035024 1.8490490981671 1.6025358430898 0.86718555672753 0.85983182451894 1.3752121725379 1.7369467619792 0.56542464304742 1.8870583658503 0.73008912769356 1.6775344672386 1.5636323483682 0.85728608043028 1.9253889708866 1.1541519224398 0.91939443600035 0.88154372829873 -0.12464191669418 1.8643404326785 1.4591792664526 1.1712562159188 0.57615902070708 1.755031502842 1.7032222316578 1.5432681549473 1.7657787412669 0.70582557265852 1.5869131409024 0.97147222786947 1.5822825725028 1.8439234889062 1.3259578151145 1.5341396369661 0.5459220439465 1.6171453078361 0.69134574352348 1.6746441453788 0.4778906228268 0.22083316728081 0.032965240215605 0.4582636042736 0.88371580373749 1.8665472429045 1.3143793168459 1.8731260505866 1.0593022904478 1.0763254623465 1.5319588000753 1.3523384634615 1.8045868403535 1.8409214532128 1.4593492288243 1.860447820569 1.5447451760783 0.74493172263821 1.8587970481945 1.8962350722063 1.5564339742311 1.4340673432938 1.8566889038569 1.5572482131115 1.8598268564197 1.5887375681167 1.5909207794745 1.7267583816056 1.6557471813805 1.9489563605838 1.444773711459 0.5413690209709 0.51127696235294 1.2782974804956 0.97145578359883 1.5783903336103 1.7516277472816 1.3042669243372 1.5339411542851 1.8464989142709 1.7244210672565 0.57919817921854 1.4710080525909 1.7010136120786 0.72750492429592 0.30826726332706 0.84797906976384 0.50952399805692 0.45608237181291 1.5756186834149 1.4052494411906 1.0234923135114 0.82209886191045 1.1206996515411 1.6278885392343 1.3063602635908 1.5373527337291 1.1121579199945 0.74523833267202 1.5909802249107 1.2781767656613 1.2552908914518 0.64504610306026 1.1679997886742 1.5250930008729 1.0837647834013 1.4482270104602 1.1707802572382 1.8265535218527 1.5589629502242 1.541211332905 1.4233188327494 1.9174313790541 1.2690625125869 1.6974743675195 1.5591348252234 0.47247012037347 -0.60710146994727 1.6361076730256 1.2084692415723 0.74064913772362 1.5425305040655 1.4979593988685 1.8105115564471 1.8872879831808 0.96792569604317 -0.56559639707053 0.85696424852978 1.4140617428471 1.2268303354993 -0.22795452065521 1.0552047518317 1.0549926480935 1.41760776299 0.90110141939174 1.5692549249068 1.3751286112966 1.2516241041955 1.5355037081666 1.7194769952201 1.7873995241494 0.60896871340435 1.8831315253133 1.0104185673422 0.13398962818633 1.3161348284044 1.7118043340092 0.50236369017156 1.3077451687433 1.3751947535812 0.72743513141272 1.3825526258569 1.743160652462 1.4782575924584 0.88520567593975 1.7636850347005 1.6781604778162 1.2553195252607 1.3166415007496 0.97801345475954 1.5015011099199 0.28361691410345 0.58891958948743 1.1526786860773 1.2961796252257 1.5248750377597 0.76928418718896 0.37835760843573 1.823969964768 1.8885597263506 1.9020228028965 1.6067829595793 1.3613752195307 1.8793340864486 1.8288249398191 0.58744920235612 0.8384373190535 1.5258728344744 0.99830284880622 -0.21604212008303 1.5979673613865 1.4191636425766 1.3953164249959 1.5834490952938 1.6246822222125 1.4728402617317 1.4616181310553 1.5653999615649 1.08343946493 0.83672243224311 0.87710392418632 1.7493281199474 1.9383962129269 1.2437870143127 1.3580645270647 1.7192128075283 1.8539524977434 1.2746034369182 1.5022680884728 1.5167066515167 0.66558822874042 1.8329843388278 1.4204247501116 1.448304436813 0.96215774891252 1.5638330683943 1.8374535142868 -0.36781873350361 1.5759260467597 1.5167079858239 0.5328051988499 1.4046877950733 1.3622513568251 1.0498397620092 0.20813749096276 0.1483050483935 1.6006486988678 0.31981078064071 1.6872771827099 1.3073094809151 1.8138620215197 0.89521724127964 1.7450939862344 1.4450105360705 1.7425643571591 1.8203044375293 1.4076966852747 1.1972983524656 1.4283195538296 1.5715376763128 1.2793001605361 1.7548113235698 1.8396643431699 1.5602664266767 1.1391747356591 1.2772359102154 1.2001824944351 1.2408182533492 0.93073326176322 0.69744993669928 1.4554984995636 1.5287122523049 1.7896347021828 1.4802168321365 1.887860536634 1.4152678883986 1.6974457578944 1.4936083200115 1.8952134985941 1.2684712882407 0.99636459304615 1.6010973417367 1.934656229277 1.5181755294136 0.87561441320328 1.3475686179836 -0.23988625267024 1.8441196046888 0.46673879035645 1.8183540175873 1.4817165712665 0.24432942689194 1.5767034897709 1.3149214429999 1.0698413076197 1.5021138040892 1.7194561443533 1.8556177421147 1.4279537668434 1.472646546719 1.8055291364173 1.634400733254 1.3765304865037 0.71341548098854 1.5994347496993 1.5743490018545 1.5321663808894 0.66621965667331 0.47852550766337 1.4313726284706 1.2348318324528 1.5080771930847 0.83788430620587 1.8507069049687 1.5761325071797 0.8212460973538 1.9363380928474 1.4234178001909 1.0559337892901 0.63129651882968 0.83214284231833 0.98513940820849 0.53372100062499 1.6982255585067 1.6115065650479 -0.010612418855625 1.3459747881307 1.16160430594 1.4524345862151 1.3462393479135 1.5414636169501 1.5188529566203 1.8080809564478 1.0425258009806 1.6038007422323 0.76110663299466 1.075269163621 1.3883126005329 1.6046038626111 1.0967257821376 1.7853212528034 1.6257597204228 1.3204431245422 1.5993216192297 1.435117329594 1.6691119660058 1.5681548544859 1.6225752609799 1.5872652314499 0.41495547960674 1.3156113880522 1.4387784631003 1.826303057657 0.77350343544472 1.8014131649259 0.81433932644845 0.89594249075285 1.3399797311192 1.8017131863007 0.87542319322629 -0.6868453356877 1.4031014841837 1.5449925611976 1.2743647553468 1.7001122903371 1.4750415564514 0.66421187018946 0.82204081038392 1.8459059086371 0.93549584627889 1.5897864050369 0.83739407830473 0.62893087994045 1.3647578655413 0.56696719817964 1.5702243206371 1.6095320233896 1.5313606382642 0.055694219882833 1.119687541305 1.6986553628588 1.2030904695992 1.5397571419384 1.4303154079726 1.3910222655964 1.441514002475 1.0687185050623 1.5943867619053 1.5634426504599 1.0221571028044 1.0849384978205 0.25620599251226 1.9148048174347 0.92017057827427 0.33699885054437 1.741805204276 1.3298321520462 1.6258690717821 1.7016817000602 1.6781499943876 0.64954283908043 0.85221058010884 1.593246655255 1.3887264770804 1.6567848191872 1.138072066303 1.498051718091 0.78200513938336 1.0546758507898 0.86614313724779 1.5112606065764 1.2375933050178 0.67731107345924 1.877932656891 1.6603891077977 -0.54965451625022 0.13185263060258 0.89308589182392 1.6581587006569 1.7546465084508 1.5548225181848 1.8448604636898 1.0999702572647 1.4529976419156 0.61562068456866 1.6827460028451 0.37425172833537 1.8916805811304 1.1093404297112 1.5656430465026 0.89922324937666 1.6137088631692 1.4997760182713 1.3539645877539 1.4348670437334 0.35397867480421 1.8611697962265 1.1426571622827 1.5004414278319 0.45615477022016 1.4707744980051 1.5825081594691 0.95476734474029 1.3611463980369 0.88069008999222 1.6956106218216 1.0949816993613 1.4746286855025 1.3792450759029 1.2673687733141 1.8681032932088 0.69461560076741 0.4142823679481 -0.52170535866666 1.7817106485672 1.1238511076506 1.0508733878956 0.75809596960538 1.8241415737892 -0.20334125356602 1.6230363217104 1.5855580562699 1.0979173438872 1.0352507305886 1.7895113328823 1.8777004408107 1.4671957168472 1.5320882464864 1.7947544650591 1.6855434828914 1.8529015153392 0.73134882738155 1.4316138503462 1.8544785635531 2.0526084370327 0.69971970727404 1.4564731591326 1.3655410648909 1.467811011406 1.5838310094922 1.609730952439 0.62331620775897 1.741914962012 0.7034011703152 1.1335997146021 1.4740938465607 1.9297585218644 1.1217082692701 1.4130964572267 0.11633030826345 1.6830547040325 1.6646944390185 1.1578500770337 0.27674580465743 1.3973651637231 0.71435461237078 1.6613973966524 1.180864193313 1.523610999553 -0.3451079952591 1.4976551328514 0.67607925744336 0.76959044756635 1.8575049273053 1.2713951416758 1.3147681723684 1.5367609815104 0.46307031446321 1.87098544574 1.8476701960046 1.5194368762756 1.8312388336438 0.65934219033737 1.4432904483598 1.4570977275393 1.526610331595 1.0406331630532 1.7984105582983 0.50697789030085 1.2668849991426 1.3864717257445 1.1826970184524 0.80334389611777 1.7800923125897 1.5629230146895 1.3830750191278 1.374526043006 0.70547986727243 1.392657149298 -0.41175112266381 1.5889477526266 1.0076210017878 -0.27600458504261 0.25644889333385 1.5451898444678 1.739620914343 1.2075731354255 1.3793448863813 1.8703557943015 1.5347608023329 1.0756698106513 1.6250214551783 0.91883445592363 1.1915714770049 1.4749424148821 0.97061431555855 0.35180097367893 1.4079876718294 1.448107966543 1.8594706931292 0.7583761313553 1.6695210854333 1.5373486660594 1.4597562022445 1.5692313720956 1.5921629593454 0.1936804439126 1.0077217907511 1.402406816966 1.035243478459 1.238179938244 1.1320588285406 1.7596793699764 1.0548717332277 1.2492324211356 1.4638186686575 1.8011959186564 1.7410151604785 1.7537653168227 0.6374832733817 1.867341770345 1.4758696559051 0.75538500441522 1.1867697379033 1.497399482869 1.5885388603433 1.1123511518334 0.83717421495482 1.4464622751761 1.5757530674267 1.9260615110315 1.4280628660785 1.3026946382144 0.79765223627599 1.4075590340265 1.5676502790709 1.5849833646533 1.8189664216624 1.4148895494949 1.5508621047281 1.130670033433 1.5449816081773 1.598977082245 0.82571682495405 1.9118282834197 1.3936368417393 0.57047426324806 1.5994383679562 0.88066843889879 1.5267552354628 1.2213347413791 1.7353006787221 1.20176774206 1.2108093977278 1.5647410532265 1.1467033086454 1.6595327822368 1.8587244436921 1.3231701837294 1.64781045435 1.4584711493812 0.48064818910177 1.0310011267545 1.7896693457254 1.7303807547653 0.15043386639239 1.5925356478808 -0.55381900378454 1.3962053456502 1.7280322278857 1.3005921043534 0.61318115373253 1.7737746286186 -0.70372141689383 1.7397493371886 1.3244957647331 1.4396431423429 0.73325628942723 1.17568945735 1.387694099818 1.0438256102436 1.4676312841766 1.0772915411627 1.7326084243649 0.77442212564412 1.4224515647438 1.5065128379852 1.2117375481315 1.3437138079356 1.5865696807753 1.5711083893348 1.4664954763604 1.1011435791544 0.62134194059245 0.75448532477989 0.63260178966788 1.5319320842567 1.5747329394615 1.5891911219873 1.0692264401087 1.6755251679297 1.551309620298 1.1024969918068 1.5909338985437 1.4435352231948 1.6036016947458 0.50814716521694 0.96380461256686 1.6056017177888 1.2697869623389 0.9190011165238 1.3089313316921 1.3491576540629 1.0598574756771 1.275799096929 1.5370376623903 1.5083139786517 1.2030094946436 1.8691520819311 1.8264930087345 1.0843007445692 1.3756114909936 0.72428593898426 1.3386890304922 0.66894039241833 1.6466124947775 -0.20367560771325 0.67608510026846 1.5368162994661 -0.27091934221948 1.6696418436474 0.70739655801838 1.2868763135223 1.3152697643702 1.4336152641798 0.81752620375691 1.4076531803317 0.47541117923703 1.2479091660467 1.573611725461 1.2713105726318 1.550294492173 1.5137780385725 0.97001347252801 0.80480349076684 0.43749501621423 0.78139764539884 0.54827586408051 1.8395245856032 0.45117986471524 0.92294819215644 1.5268207277536 1.2990570377384 1.5438858864924 1.7486447172719 1.5651404348286 1.6029830609155 1.2370512110819 1.3926352091674 1.5186778810576 1.5403699067822 1.6892841870409 0.55462131238487 1.5802113172721 1.5704019717908 1.1737118133004 1.1499046507239 1.6581152434909 1.908920376417 1.6000970555301 1.7211360744772 0.66552679198328 1.2377908573639 1.8110908362337 1.5992349572354 1.289615884811 1.6763286127452 1.0245080650172 1.3753275686328 0.41411438160028 1.7375887169301 1.2992393593667 0.68118029238879 1.4660601962851 1.5243336409858 1.4159791487386 -0.15591145493463 1.2804051297316 1.5804126457419 1.8696796607354 0.32380063596607 1.7734544972263 0.81090030745412 0.21731357238647 1.2052045135179 -0.45811827605056 1.7109720665605 1.9170477642496 1.427266253497 1.003973935311 1.5127221087399 1.7377374955693 0.39395948882021 1.5848145069824 1.4912708853226 0.22228753345788 1.447583000509 1.3495260488908 1.6409051708412 0.95398118205235 0.53051041757961 1.4350557418079 0.61984445093586 1.263080495881 1.8758205817103 1.358403500134 1.4968120736943 1.3247424561719 1.6195796171762 0.35121667373091 0.3986985058306 0.97691969665424 2.0111485708504 1.1223288952023 0.62252719891874 1.5329859372597 1.5765485215262 1.0562478968903 1.3604767274977 1.2427204461989 1.3463231600576 1.5775190746857 1.4809401172508 0.74278837008457 1.2934201662035 1.3383348588345 1.6184182953491 1.8867678496988 0.60172699864737 0.8799138606101 0.48018428781433 1.5179840940438 1.3195429594109 0.80218977785925 0.98708064796488 1.7699741112757 0.50040045181651 1.1890926237571 1.0594287203833 1.2856958374571 1.7435398056134 1.2401844869489 1.1520756785061 1.792508016901 1.8854524980964 1.5370461810649 1.7416247862273 1.6126919750507 1.2380406845262 0.78891766407098 0.75098026847178 1.4868932770131 1.0663289401332 1.186473794252 1.4904470307966 0.76247259998411 1.650538185719 -0.15059775189242 1.805938539242 1.6093376497884 1.358899507412 0.53761766916285 0.61030327787573 1.7612068690148 -0.025813167130392 1.1490964259422 1.3064490060009 0.60687336817549 1.1566899191539 1.8568382728545 1.8058096827201 1.5062797195125 0.66948454394612 1.7145438036338 1.7393347395225 0.32216549545659 0.91268661630806 1.6402599591254 1.0102938325632 1.5515882283868 1.5456482244165 0.93914407600632 1.3756118379995 1.2349644029493 0.73897478586242 0.64449835359474 0.62327281488535 1.7838234301155 1.848033098916 2.4790958511453 1.5644477636362 0.88278900203267 1.4062188290125 1.4913774197509 0.93599749304181 1.5087855614678 1.7132614546473 0.50111332889549 1.7440930584381 0.86753621714583 1.7419369843439 1.5390832913134 0.75543275419413 1.1297454394208 1.5101328032077 1.4040075539348 1.2379845453449 0.89199667428428 1.6526196056274 1.81242873895 0.85285961537081 1.6975312779221 1.7465049352643 0.46765655143971 1.9799746118638 1.4213477731444 1.1834503840594 1.0796037050623 1.1210403842268 1.5789259230391 1.4736686915534 1.7121381558155 0.88172726080322 1.7895804855068 1.2950010056252 1.4385655797151 1.3300386387823 1.0373961116265 0.65363503921992 1.9004459371433 1.8211307680114 1.4393066751449 1.9187918461752 1.0619437445628 1.0316961199874 1.5125979181773 1.4970654529716 1.3576930277219 1.3562430354958 1.501101132357 1.0488245090968 1.8034946453378 1.8573382897705 1.4051128792901 1.0468583399033 0.80008412742356 1.4170326883205 1.2633667697071 0.31866303415579 1.561639876848 1.7219798229955 1.2839504363688 1.8628542650144 1.3532515435181 1.0719676097303 1.8837845193817 1.5203938132938 0.61791935592932 0.73201297167581 1.2855624376409 1.8348527014199 1.1800837696745 1.0345149252835 1.5289416531657 1.3161878195987 1.7178196166651 1.5908501804595 1.2189790261373 1.347931443109 1.7252339467965 0.88835053881908 1.5983700809327 1.6325833380825 1.8787349773381 1.4868099732602 1.2733891536376 1.775110902745 1.7481128676281 1.8088629883698 1.519118673141 1.4584846594294 1.4835252843139 1.6025970885659 1.4749628690019 0.93008901305372 0.03130402059122 0.88823694850947 0.78411376808073 0.76899442248079 1.5813430681184 1.2418617563217 1.7689238810373 1.2388579972948 1.5276163649727 1.2697206984345 0.60598631395902 1.7680699736479 1.5487500430441 1.6371062207035 -0.38232583350319 1.8509767966426 1.6123434107174 1.0362991386855 1.8360052621177 1.1935499787406 0.98441669059993 1.7853696281208 1.3008384389209 0.59692530780275 1.4562631278344 1.1968360169258 1.097063622172 1.7861040979846 0.94323108922733 1.6151124997539 1.320168671242 1.3364785465726 0.97922088366098 1.7806380120703 0.2251230658252 0.693800075932 -0.49656349005554 1.3833395566229 1.4289047048676 0.78896122632082 1.0360902074509 1.5855786592397 1.6721117114355 1.4089094587369 1.6202500482468 0.88298357328719 0.85868795754686 1.8301904944723 1.7497849411022 1.4943001802594 1.5825325192671 1.4594351396736 1.4184964951998 0.59923540121119 1.3815697112775 1.6765389339423 -0.15177678399853 1.331930039998 1.8817532045468 1.4388426737268 1.4135086220528 1.2463075586341 0.87305958827891 0.4559749902657 1.5466845062526 0.754883760214 1.3792709490597 1.3986493250948 1.5446614144332 1.6060617322009 1.7943620454309 1.822491510779 0.30775506752171 1.4678816078043 1.1038306892711 0.43353658060026 1.8147336640128 -0.47964503622776 0.57900226533274 1.2746340129336 1.7137634305747 0.89772973012599 1.4932093006432 0.55754126235633 1.4330708140081 1.0266602463798 1.290568177882 0.97169132646977 1.0272112042073 1.8894117419668 1.4622035614218 0.73359759051714 -0.095247831146836 1.0673398692417 1.3201705427917 1.5546759102854 1.5070031476082 0.95712014168493 1.8438755358378 1.3337570935852 1.5054156414972 1.4520169529762 0.73874892784138 1.5635252533662 1.5213738736