# vtk DataFile Version 3.0
d-3__ created by libgimli-v1.5.0-1-g5991b6ac
ASCII
DATASET UNSTRUCTURED_GRID
POINTS 1483 double
3.3802423101098	12.435481574566	-0.57001420684378
3	12	-0.2857142857143
3.4959596309848	11.998298039034	0
3.2490070092203	12.168560129388	0
6.0395510135596	13.367156253372	-1.2757999763971
6.5930002103947	12.023472734859	-1.2922192071349
5.4998599382803	12.552571297657	-0.59337769664261
5.29662096318	11.932351047571	-1.5392209346082
5.6153020589615	9.1440579133635	-1.0774777831171
5.7237069713611	8.5589744845549	-0.30827017969781
5	9	-0.2857142857143
5.3151026533923	8.4249591108801	-0.38240156963578
2.3178923476779	4.1926464382665	0
2.5373292327812	4.4716333182052	-0.48281884804687
2.3342974478463	4.0018571812202	-0.30572640106363
1.9994701911036	4.4258543307655	0
4.8968211033092	12.507755029533	0
5	12	-0.2857142857143
5.2932790228536	12.494788035524	0
0	0	-0.2857142857143
0.54768630893449	0.55020446432687	-0.60775225926193
-0.16846798780902	-0.24002860812406	-0.65332445545953
-0.28063481777066	0.41453578455018	-0.44890469943706
7.7	3.575	0
7.3102059000399	3.7470939102263	0
7.7	3.6732286664853	-0.53772532608145
7.3176226410905	3.2857280588852	0
-0.7	-0.10798167686939	-0.47517111104905
-0.7	-0.57707899562378	-1.1376990549501
-0.7	-0.61986630133594	-0.43486724047509
6.3962361866998	10.611290418241	-1.3182185489848
6.565939673393	9.5694509864085	-0.57379796778735
7.1295911592009	10.496363016677	-0.48219980545192
6.3839624611364	10.341052129245	-0.35036617584397
7.7	14.3	-2.5
6.7623683783591	12.987112326146	-2.233077027779
7.7	13.059020885286	-3.3539705522597
7.7	13.327367479896	-2.129915020979
1	6	0
1	6	-0.2857142857143
0.93236760237426	6.49128333619	0
1.3454573625665	6.353105459937	0
2	5	-0.2857142857143
2.1684298754346	4.7403793023811	0
3.0226729813355	8.4836106439452	0
2.5164096947204	8.910651700233	-0.41109082170818
3.4071201441719	8.4167381876838	-0.59109415332551
2.5374808587914	8.1383747261781	-0.35604109466584
6.2778911301719	14.3	-0.61136458754231
6.2225356773765	13.691717475418	0
6.5208076177088	13.495118289851	-0.49928801204061
6.7358646795693	14.3	-0.39005656748015
5.7965188279432	13.281940723964	0
5.5320359851605	12.925291312368	0
5.353113789845	13.264183036004	0
5.5919457801018	13.101154188917	-0.33537516396337
7	10	-0.2857142857143
7	10	0
6.5010306427949	10.010760669106	0
6.8196744207924	9.5136576917357	0
7.7	1.1375	0
7.7	1.6430719769933	-0.42557297445049
7.1939383721229	1.4724531054162	0
7.7	1.625	0
6.3572581294301	1.4772201134971	-0.96507376287322
6.5574763981385	0.84898833643366	-0.48332647821142
6.7774291048203	1.7003141153393	-0.4123635555875
6.1433933962903	1.4220674799247	-0.28622251631329
-0.7	9.1984657118068	-1.9278839451739
0.33291529395702	8.3305676904572	-1.2970017952003
-0.7	8.1442617177323	-1.0898260028896
-0.7	7.644268062563	-2.0766032868031
4.508194357046	8.6258793740749	-0.60770874662543
5.0095189690676	8.5009469809039	0
4.7609249278557	8.7686419230913	0
6.2306672701993	2.67753718	0
6.6360398560532	2.4670661479797	-0.44686919005428
6.4910302172834	2.4939022421641	0
6.1550873755842	2.4572757142813	-0.33684154297057
1	1	0
1	1	-0.2857142857143
1.4901571161019	0.99574153349402	0
1.1736530561382	0.72346383359363	0
2	4	-0.2857142857143
2	4	0
1.6440539242474	4.1532454240512	0
7.7	6.9501255673919	-0.74418826283982
7	7	-0.2857142857143
6.7521552376889	6.497772044976	-0.66059363300197
7.7	6.3887218416049	-0.46884913673037
5.9482896260331	7.5800048202495	0
6	8	-0.2857142857143
6.3095291646476	7.6896230263426	0
6.1432247512519	7.3579252770212	-0.41388970597853
3.501272057481	12.437082442362	0
3.3297831413816	12.805427976196	0
3.6823393063421	12.851671876304	0
1.3671388209093	10.633374397873	-0.4152980605108
0.95248763025238	9.835503527633	-1.7808732395437
2.3518021577517	10.495200039554	-0.50930668321109
1.5373497846005	10.021005779616	-0.41781002197689
6.2054585007625	14.3	-1.3884356875417
6.9442913034148	14.3	-0.89278753613404
1	8	-0.2857142857143
0.54167473049383	7.7707286368021	-0.37916050195481
0.44975345341211	8.3808810318019	-0.31136669048163
1.022076618805	8.4121844676845	-0.45670843222423
0.89173681858685	4.6122796653579	0
1	5	-0.2857142857143
1.2386083631299	4.6841794176855	0
1.3923592539172	4.7130963353432	-0.25978315417498
6.4242299347383	5.6840176993625	-0.35514079575845
6	5	-0.2857142857143
6.3424541740313	5.2754910113697	0
6.0447933133998	5.5049876953384	0
5	2	0
5	2	-0.2857142857143
5.5190673049038	1.9208326821789	0
5.2306444928855	1.6547875838902	0
5	13	-0.2857142857143
5.257359886178	13.540476325965	-0.63012071696907
0	6	0
0	6	-0.2857142857143
0.066757795936057	6.5008369551487	0
0.29243888553297	6.1743316976873	0
7	9	-0.2857142857143
6.5033796411008	8.9981073418213	0
6.5607922823332	8.4440251373986	-0.63122800754088
6.811726958696	8.7028726276344	0
7	5	0
7	5	-0.2857142857143
6.4986646723997	4.9192017057136	0
6.7141996182955	5.3303468264748	0
7.7	9.5988491781319	-7.4736716195817
3.1507199964473	10.394874003632	-10
4.8663216648816	7.3792654266676	-10
5.1015502438684	11.553440122249	-6.405163284031
7	7	0
6.9589015254993	7.4884372736447	0
6.761634669635	7.2408783569561	0
6.0574437090791	0.20878539066113	-1.8779478182653
4.9838025543493	-1.3	-2.1179854334408
6.0308685444023	-1.3	-3.5425074203685
6.440522236286	-1.3	-2.0103523001383
3	2	0
3	2	-0.2857142857143
3.0105846506	1.4855923993349	0
2.6480485575569	1.6700894103009	0
5.0527203000088	13.535479310798	-1.5373151531841
5.0246691847863	14.3	-1.036131499603
4.1300067609037	14.3	-1.2024507502556
4.4744197407865	13.547407617085	-0.63586628370479
2.5813517996865	9.6286485974984	-1.0236151505326
2.2955236368793	9.5881134365907	-0.29154811067367
3	10	-0.2857142857143
6.4248505083522	12.522044346884	-0.42559946143008
6.465073985677	12.51782996062	0
6.1644652963082	12.36965297069	0
6.3832046574853	12.135664356038	0
2.9908655166747	12.498069465114	0
1.984703560175	7.5906357794687	-0.50777967523709
1.0508409188237	7.354634772545	-0.95680796450018
1.4515039911109	6.5829264157992	-0.56173008002516
1.3866216751759	7.5118935788728	-0.35488362790971
2.45	14.3	0
2.2168273415577	13.627179222019	0
2.4554693735383	13.497784276817	-0.39727655195048
3.032551925238	13.762466584345	0
6	11	-0.2857142857143
6	11	0
6.4843452951013	10.966514281357	0
6.2440599782187	11.234710090977	0
5.5	-0.5576923076923	0
5.247952850371	-0.29481663567353	0
5.5452342683804	-0.096294524539033	-0.49623355575102
5.1016398375367	-0.61489919294387	-0.38960315167385
2.3232496140345	4.0110297188843	-1.3835068702753
1.6586320571652	5.8268322896535	-1.5213554090482
0.71002746520551	3.976198472286	-1.505315421377
1.3296414347056	4.9089994064226	-0.82629172929831
5.6	14.3	0
4.6510156691765	14.3	-0.56274723813486
-0.090060726359069	5.5363033123106	-0.44581840212762
0	5	-0.2857142857143
-0.38456492153953	5.1805342841446	0
-0.7	5.0205501441189	-0.32507149572551
3	13	-0.2857142857143
5.1848675157348	3.2965660830064	0
5.4046165570399	2.9501485228537	-0.43988698776777
5.486289771732	3.4981838484395	0
5.4682750147717	3.0660382780841	0
0	8	0
0	8	-0.2857142857143
0.5178658825659	8.020802151125	0
0.25864598874121	7.6639427314904	0
6.7098208972434	7.2950601162224	-1.3269022195366
7.7	7.949747446039	-0.91833665053736
7.1577047253729	7.4844276204668	-0.64272934527953
4.5892004575887	3.5369189576522	-0.55981654583505
4.4420188491858	3.4660037233365	0
4.711527897636	3.7375259681419	0
4.3494632088922	3.8023533541114	0
4	6	-0.2857142857143
4	6	0
3.9913416390327	5.4988534517732	0
4.5093195747582	5.724109532591	0
1.4	14.3	0
1.5	13.55769230769	0
0.89284349994875	13.714781914708	0
1.2292962491126	13.670420041977	-0.37788942865261
4	9	-0.2857142857143
4	9	0
4.5502440226935	9.051086551406	0
4.2963154051231	9.3907765114078	0
4.5321110402369	7.5028925212181	-0.60552533206341
3.5085861108931	7.3893844432383	-0.64873189634878
4.0050480592533	7.4977657988521	0
4	8	-0.2857142857143
5.8961095330637	-1.3	-1.0125722125019
4.8982045728458	-1.3	-0.82217786726149
5.2296982103621	-0.31621891710017	-1.0679345669244
4.9010483556055	1.478997710586	0
4.5631533182214	1.9074133665015	-0.41231302454656
5.0320642355688	1.4518180616801	-0.36509190625555
3.5357179442866	0.46434418042464	-0.60031716899974
3.9407498163335	-0.4411178910574	-1.1087857494349
3.2826824657074	-0.47747544834602	-0.50866572047373
2.802260468126	-0.22902113419037	-1.4542342115515
1	13	0
1	13	-0.2857142857143
1.1191337005982	13.329221525091	0
1.4884720276527	13.02962190928	0
-0.21681247778723	8.5792000107362	0
-0.35118339610893	9.0917088673227	0
-0.7	9.0968147603684	-0.35256881313688
-0.7	8.9375	0
0.51662331659314	-0.40156299802931	-0.67799391089861
0.13474046208011	-1.3	-0.85683826964205
-0.16941603187845	-0.57512411281067	-1.4019543009948
6	13	-0.2857142857143
6	13	0
5.8068477026831	12.499749736815	0
6.1890713266052	12.67695534294	0
2.5984255358496	5.4578875982232	-0.67264342113488
2.2172109403706	5.4325217687574	0
2.4824672258873	4.9705265694472	0
2.6598112065826	5.3330483814808	0
-0.7	0.5146532048839	-0.51418317722913
-0.7	1.0492756199945	-0.88024243711367
-0.37698118088761	0.89350663208132	-0.33360419980628
-0.25096134668857	0.95145340086689	-0.90448711690516
6	2	-0.2857142857143
5.4002158317804	1.7678073061348	-0.50898482673054
5.8183999242367	2.5164331321023	-1.0840550371572
-0.13917028340788	5.5182991349521	0
0.31578338747353	5.7567158690792	0
6	12	0
6	12	-0.2857142857143
5.513035862904	11.994753403328	0
1.5285536174902	4.2362319729344	-0.43851980589517
0.57100063419133	12.499134596467	-0.56842257570583
1.2565986295401	13.42724014175	-1.149557674079
1.4486633887383	12.69302170761	-0.31714242590465
6.65	-1.3	0
6.903739311401	-1.3	-1.0953527719967
6.3980205255852	-0.38130956989248	-0.5855507841991
7.2175457166608	-0.5710098692386	-0.51938212652516
3	7	-0.2857142857143
3.5055774955602	6.7395375676091	-1.4094768265058
2.383927159844	7.4535505157878	-1.0620490471275
1	4	-0.2857142857143
1	4	0
1.2222221827385	4.2954008280594	0
0.82345085295407	4.2815033897546	0
5.6	-1.3	0
5.790373644402	-0.65252487431205	-0.38521635467031
[...]
CELL_DATA 5483
SCALARS Coverage double 1
LOOKUP_TABLE default
1.5199385760213 0.76126314931541 1.4184716075282 1.5839388224489 1.4557945429776 0.89384520196667 1.1563897637753 0.68580329467652 1.1274329357819 0.22548740398812 1.8795551601503 1.6858648258341 1.5131855594636 0.73193053097129 1.2563844195107 1.8006223511018 1.007953665945 1.1613312056694 0.63586424022746 1.6647323706889 1.430881937634 1.7220057540843 1.9190365584095 1.0921205230563 1.6078704503882 1.4060540562932 1.246191904175 0.59453169288219 1.4204257399739 1.6840820953202 1.5886853002892 1.7220690073177 1.219879669099 1.8161060377539 1.4926747664591 1.7781457530307 -0.3548982297159 1.8113619698507 0.35536621415295 1.7381127178659 0.63419716504077 1.3828514845629 1.396855339333 1.4779468521552 1.3337943709836 0.89657281763656 1.8359194231554 1.1148918405147 0.97500663839466 0.58449675275854 0.70144735948152 1.3016020483685 1.3934404157265 1.5305475294277 1.7115982233629 0.98037435406967 1.5299359046355 1.9285329812275 0.86199254223165 1.8496573936492 1.5401359814037 0.71656976797135 1.414905609686 1.5374778042196 0.8267995616485 1.6106906346758 1.1777213953415 0.66289669140764 1.7173754706154 1.6003385355666 0.84653861017792 1.0974704774407 1.8218889860539 1.7010392991046 1.5574462058126 1.0385513593865 0.69483135658307 1.2955039187124 1.9489508685464 0.71695575980113 1.1738146712032 0.83022837750795 1.5085151728367 1.2169212907227 1.51123772167 1.0135487269042 0.6329478286203 1.8172144330493 1.7798622233897 1.5617783144337 1.2055367210194 1.424909320376 1.2909559613186 1.226506673943 1.4658461369488 1.6347982335918 1.597950076316 0.98276848788463 1.6535901386132 1.7173756173564 1.3087814428216 1.8055889185783 0.9905549483481 1.6030150984263 1.145182077073 1.5803578067844 0.3912160308451 1.1611666820746 1.8395304508225 1.9122090961039 1.7506381674473 1.2899936379462 1.4886507202113 1.5610821343905 1.1699807442552 0.75118025498925 1.0240342642606 1.0579094457237 1.5764726673842 1.2168914260708 0.97498819449078 1.6285164897311 1.2658587140061 0.45345839100654 1.3238614788872 1.7915710052687 1.0841934361197 1.8028659711497 1.3397226858346 1.5558504543414 1.5178483894359 -0.17139555509697 1.1020491658069 1.4357677328554 0.83598848243199 1.6048208503226 -0.34852352301518 1.3841454480224 1.3798289595809 1.8792370368882 0.60288565853261 0.19544848295023 1.8030754417231 1.6993932346393 1.5492664018839 1.4307361860785 0.88297851736146 0.81783202790084 0.96970787192787 0.58899213484352 0.43829692936558 1.8718673454637 0.81457988649555 1.2079331107693 1.415134308505 1.6444638543 1.5352733141782 1.0601560905621 1.7422444360425 0.85008172937302 1.4087899009008 0.7840976133826 1.0308996022368 1.6003873705148 1.8839646317743 1.6689870902138 0.60389437913925 1.8639424146377 1.4586368031986 1.7918667616705 1.5989461413793 1.18599655351 1.3337897258794 1.853563835162 -0.0095140859759114 1.8798627612219 1.9242967907508 1.7826356586667 1.6904921285221 0.19107022337527 1.5679175851561 0.42057349734869 1.1351974203777 -0.05270049580393 1.228803248565 1.905557484139 1.4104008318532 1.579887191431 1.839772322864 1.3453497906061 1.8825796146867 1.3434917785886 0.73168882885343 1.6211798060798 1.3086745165008 1.0911391311862 1.6562842896494 1.5518755972072 1.4175642856909 1.868311290752 0.66963013916642 1.9585515314844 1.5125411548077 1.5135392780109 1.9589957231037 1.7004271420176 1.6696049501703 1.4856221788532 1.0973521962912 -0.40037309613288 1.3858379045091 1.0896187639658 1.193328930579 1.9040727522197 1.88022232477 1.8974506272474 1.823781800973 1.6019174169558 0.87488457839782 0.86856018664908 1.392089862229 1.7505075686204 0.57130808548707 1.9085542397637 0.76125352756635 1.707644439555 1.6050899930513 0.89793272101924 1.9238741306004 1.2160126464131 0.92352000350782 0.88555273473015 -0.10801619787724 1.8766938622055 1.5251754288235 1.1938757195928 0.56662814656025 1.7702733239762 1.7764755959417 1.5555039237286 1.7791211925172 0.69719387315221 1.5955734781277 0.98450762433189 1.5935895578653 1.8575549211824 1.3599596619536 1.5465360217637 0.6005786860352 1.6219721111903 0.70912227565948 1.6512115995885 0.4739771318325 0.23275797377428 0.068402131998268 0.45591220530369 0.89131606209419 1.8804346472707 1.327253776723 1.8836954040603 1.110660538614 1.1073928681238 1.5897260367842 1.3643541601212 1.9200244437643 1.8417808759293 1.4683520791606 1.8557101471811 1.5734977704798 0.78660328150432 1.8629317599304 1.9074910164935 1.5547230602351 1.4362639901325 1.8650190397558 1.5455542917725 1.8715204695499 1.597490230129 1.6186327066342 1.7373545966803 1.6678417219256 1.9696763811157 1.4515380991245 0.54870104325819 0.51050246267522 1.2946504536713 0.99184329875624 1.6042865122835 1.741399069518 1.3145756377776 1.541786207148 1.8543394436009 1.6997093567839 0.64282403730064 1.4992566938766 1.7093075364839 0.74670372240396 0.38426495532005 0.86558011826614 0.50043019930684 0.46600581262944 1.602109056514 1.3930572372689 1.0883304325557 0.83067420616054 1.1397909286471 1.6614198122367 1.3211833987952 1.5505433201242 1.1277134150857 0.75125752627899 1.6019542483489 1.3027509602116 1.2580054276946 0.67742047990796 1.2133053988967 1.5389879989301 1.1141515866133 1.4593432942013 1.2032197141274 1.8353813020257 1.6164642374474 1.5485506899131 1.4388025614989 1.9296614773875 1.282462002941 1.7097834284303 1.588712937293 0.48297221241145 -0.61978589194817 1.6470454188342 1.2372132552904 0.77616849861958 1.5614692860538 1.5571658392152 1.8321376253048 1.9150176276835 1.0053742828686 -0.53867022987598 0.87942191021751 1.4155819150001 1.2263963220789 -0.23607958754638 1.1017015052164 1.0675626717782 1.4346228507866 0.94010030969683 1.6004800628967 1.4325192371294 1.2626590297112 1.5531178152793 1.7511433790661 1.7624786876908 0.64377530539964 1.89632312601 1.0234246834798 0.16666406344587 1.3291831989802 1.6696621697232 0.52992376677499 1.3140479390063 1.3866541764644 0.7643190458562 1.3979466628741 1.7474891788535 1.4890104619496 0.90764764113559 1.7566852975683 1.688635837719 1.2813070965808 1.3267560043404 0.99253027518205 1.5118870091111 0.30515295929558 0.61476065433572 1.1606802907727 1.3056590829537 1.5399194453535 0.77192762983262 0.4836748298978 1.8181195764135 1.8889065970421 1.9139651609822 1.6199486140085 1.375239540048 1.8874733724325 1.8523502881297 0.59549475468171 0.85725881652462 1.5179313938439 1.0133051601226 -0.20950749851444 1.6193249348706 1.435627402786 1.3855138447261 1.5972783133866 1.6383722082799 1.4884224705085 1.4938839318699 1.5613270289569 1.1015112517879 0.83307446788883 1.0447396364008 1.696911491613 1.9894409447176 1.255532363467 1.3702295156136 1.7233206671609 1.8497570065779 1.2899915627258 1.579944013147 1.527044848029 0.74234106273245 1.8611791365641 1.4673614741695 1.4460508331119 0.98303392467513 1.5769294640596 1.8492389154358 -0.34321782157142 1.6054472207891 1.5256891240942 0.56826253492747 1.4280185887867 1.3800666893883 1.0551970918967 0.21887496441326 0.18402551393508 1.612202937184 0.31904070603659 1.7097593085839 1.3675619514688 1.7896037526427 0.91811415747787 1.7567744384196 1.4699154083563 1.7522213869342 1.8120424392546 1.4145237524117 1.209005177186 1.4399721181705 1.5828963546747 1.2929306315197 1.7700308026464 1.8494405675761 1.5708412377444 1.1599150791974 1.2921830753216 1.2036307528278 1.2427534580935 0.97047096703164 0.69784627720003 1.4670090476133 1.5399065129847 1.8694643741095 1.4939490501376 1.9015262612368 1.4842259707291 1.69968295538 1.5006642009506 1.9144368606121 1.3343238381074 1.0183283771117 1.5995698786768 1.9769336887153 1.5836757352654 0.87907087437556 1.3552535527353 -0.20599644358527 1.8577336918 0.51531520863009 1.835143556385 1.4962967550365 0.2653352669721 1.5927589794912 1.3201363773388 1.0639753815288 1.4902141718354 1.7128200626577 1.8750981180479 1.4215384455721 1.5309983295161 1.8186054242999 1.6481120199269 1.3869138637656 0.72267714572808 1.6290612245956 1.6006195355041 1.5437957189615 0.67165676742927 0.57471079708942 1.3984512345786 1.2529846846846 1.5230517464046 0.85025987816913 1.8613960924798 1.6608171389385 0.8161187065134 1.9727933005388 1.4212301000015 1.0792268612087 0.63464094017517 0.85443214105787 1.0083658309026 0.56470127295809 1.7231505719178 1.62513382042 0.034552108674963 1.3694355566337 1.1715435133148 1.4673208739295 1.3585575400214 1.5772934314078 1.5561826664797 1.8457890012061 1.0576765296371 1.6186010006468 0.79059256600028 1.0837620877288 1.3959429019512 1.6311919097845 1.1066172326106 1.7953669414722 1.6363693953104 1.3360905721873 1.611716233839 1.443718915412 1.6766854172205 1.5821862460006 1.6374222232764 1.6097797118201 0.4265857632922 1.3284210432882 1.4464648963321 1.8512398732081 0.76460025698454 1.8199209813335 0.98480845893166 0.91640519277628 1.3637481637674 1.8229763131234 0.90178125100283 -0.6501042121455 1.7403128175499 1.5793070746641 1.2729347541745 1.7023670081449 1.5020653994458 0.67180144047455 0.84658438823261 1.8828634625487 0.95717819330626 1.6017944165418 0.84842374903871 0.72119961072631 1.385243224256 0.57368407276662 1.5809043424754 1.6241911347538 1.5442407206299 0.12408429259472 1.1382290224425 1.7183529286035 1.2300884261487 1.5538332772447 1.4417409157981 1.4185232237683 1.4554144388855 1.0937507031567 1.6097357168508 1.5808476009641 1.0232359280083 1.092556351922 0.28259305946849 1.9725214687672 0.96370749180218 0.33453946653318 1.7528864885873 1.3441641141444 1.6435242114922 1.7110168722548 1.687808680654 0.65955659777474 0.85282870457998 1.6998428994983 1.4023297576168 1.6517560871871 1.1477269081827 1.5095996678759 0.87020307972436 1.059393902954 0.90392760863409 1.527365977715 1.231464303328 0.70366985666596 1.9017184683128 1.6768487821408 -0.54507442611517 0.14137830112656 0.90975557713889 1.7199035220606 1.9006392705917 1.5679137706634 1.8582621341211 1.2156143231442 1.4647496276165 0.6408472924005 1.6940916676604 0.41882288621559 2.0072185226185 1.1319734465905 1.6321754843655 0.90453412806508 1.6262229701334 1.4950187469376 1.3603541607135 1.4448013133971 0.42616014458694 1.8517612740348 1.135332540159 1.5115394686161 0.47690714102822 1.4846940147533 1.5946632706322 0.97422376844753 1.3745507405575 0.90717217033432 1.6955311938573 1.1234757763862 1.4838104910531 1.3914210068447 1.2785751197131 1.8808323376245 0.7521436425636 0.43818180182975 -0.51551623094816 1.7934403308776 1.1529674382577 1.0614065257745 0.761698958384 1.8442773388545 -0.18128356358836 1.6423026013908 1.6067363517459 1.1199113866962 1.0316698394877 1.7920585042468 1.900386360564 1.5003374546134 1.5601772175155 1.7971997345831 1.6417794039961 1.8625388351687 0.73223442467298 1.6413385281004 1.8624352965526 2.0633799173102 0.74850379809375 1.4711282195875 1.4112311806105 1.4759736716059 1.6346668877281 1.6324551297372 0.64099709706278 1.7350031270766 0.74575129223582 1.1480011852087 1.4865759353606 1.9415134216818 1.1899258884338 1.4224452757385 0.13715018567652 1.6815456279063 1.6666529982484 1.1717226822416 0.28784376194764 1.4070719944397 0.7396843553974 1.6609236825786 1.2267426086987 1.5096156697045 -0.32407702064061 1.5853981929704 0.65803553557555 0.78657462647355 1.8666309794622 1.2842468200937 1.372463327587 1.5426718237393 0.48172560288506 1.8871396398796 1.821836368585 1.5316690456273 1.844010992608 0.67889744575233 1.7062278773056 1.6390481688497 1.5378095715149 1.0506274926196 1.8105248839502 0.51826958307263 1.2823170238886 1.4030670036744 1.2025225327611 0.81396168022104 1.7866265750949 1.5658272579304 1.4074671191951 1.3922712949651 0.73551174734409 1.4098632592728 -0.41821668011904 1.6140626166437 1.0193423614522 -0.25086042885983 0.27623555912357 1.5489917972585 1.8479898439062 1.3488802462256 1.3929161300266 1.9123350810658 1.5460236101093 1.0989537643155 1.6410741969119 0.94082583224096 1.2116585425673 1.5007675906753 0.98233852634758 0.35725825689897 1.7229705038561 1.4591154818589 1.8741798163497 0.78711421339574 1.6948767162918 1.5597864607772 1.4969322524061 1.5831765244205 1.5857437298215 0.24200599791783 1.1015661522472 1.4582122125372 1.0552610227541 1.2486443401863 1.1458036510574 1.7033750662094 1.0869409621299 1.2639424005589 1.4803166002384 1.8316623317181 1.7609249613059 1.7506572492358 0.66025394696074 1.8760900078123 1.487290970349 0.78171247945803 1.202846234596 1.5117319491145 1.6903327007198 1.129474756307 0.83950797480918 1.4583570733043 1.6273206001372 1.9388990930801 1.4429450193944 1.3176701405325 0.82813553456087 1.4203384537358 1.6008893794339 1.6025608203679 1.795085797747 1.4486278753565 1.6179405236442 1.1633102962331 1.5599204113885 1.6108987719135 0.82613616418545 1.9203044743792 1.4043482507821 0.5890962080542 1.6113114408114 0.92120231909452 1.5487713557576 1.2481837150484 1.7390767174775 1.2046722930448 1.2326067598529 1.5737367452182 1.165671272113 1.6772244321413 1.8703925408925 1.3438168952143 1.6616959115113 1.4595368359779 0.49253115835696 1.1589603631352 1.7969904097792 1.7440999616063 0.2477484305954 1.6053122777379 -0.53478704285754 1.419605004116 1.7423514097922 1.3132120350758 0.66694389477237 1.7850472595818 -0.66224604050948 1.7812984072813 1.3395592738447 1.4373025310386 0.75169367679381 1.1877970506571 1.3975205407345 1.0742045994146 1.5060289370064 1.0848398784956 1.8268688226445 0.78267166085541 1.4320260812243 1.5182007132097 1.2611710369 1.3628602704357 1.5964734286848 1.599501803239 1.4668521375304 1.118822273553 0.61910178681923 0.75328258091162 0.66478138587774 1.5433557145873 1.5879023938695 1.6016490876109 1.0802928386254 1.681823724658 1.6322733707492 1.1706190975431 1.6037339296732 1.4352127777303 1.6173158842295 0.54046217114121 0.98016841557385 1.6191193804334 1.2843838856513 0.9846876293798 1.3480664762295 1.3688768987237 1.0643525634085 1.2856825999126 1.5621149239056 1.5417995910572 1.2174192413598 1.8701879057093 1.8364758128618 1.0974278547425 1.6034110467219 0.73410868747532 1.3331649266574 0.6617246745036 1.6563907853405 -0.18916425401165 0.75102908856521 1.5528783267818 -0.2439474977224 1.7048547034527 0.73563376754229 1.2925428363096 1.3354364534339 1.4416729258987 0.82086298382973 1.4208655920649 0.50795794388188 1.2628953574156 1.5881099049367 1.2845573771206 1.5841639689594 1.582701590421 1.0085712026619 0.84187234973914 0.52187109866139 0.78906824080895 0.64012916247692 1.888891691381 0.46175342984743 0.9378948788648 1.5390497513796 1.2928572699388 1.6440974160538 1.8441710656838 1.6565150123134 1.6388527519127 1.2540538979223 1.4034688409529 1.5345835051974 1.5534787941142 1.7158714962873 0.57055500972086 1.5924177324419 1.615216307623 1.1810799108659 1.1769339725697 1.6771287729773 1.95668364512 1.6060258210128 1.7314930254257 0.65889291355588 1.2462899242811 1.8226125354074 1.6552140327359 1.3186252630927 1.740861204313 1.0423504065617 1.3853044904162 0.45956033641733 1.7218522885996 1.3236624291365 0.71122347575581 1.4506106449641 1.5379341811879 1.4368500051759 -0.14324124891047 1.2942404124038 1.5941494795392 1.901604047014 0.35582199378238 1.7775703165307 0.8671419267712 0.22926376695122 1.2294079905168 -0.44940368780225 1.7317005547926 1.9591467180828 1.4483626323369 1.0190376975994 1.5264086142296 1.8096594028729 0.44393512078661 1.6001872477732 1.5139154353725 0.22884459389535 1.4854545280851 1.3635126749063 1.6549732488355 0.96430738603457 0.53865662272969 1.4456478212194 0.64552152381922 1.2719676051145 1.8843094309187 1.3695481261235 1.5063019767887 1.3574234331894 1.6401408342421 0.37536525981353 0.41795248922621 0.98918631473843 2.0397487383453 1.1516697385775 0.62909439782585 1.5337552131877 1.5886148295339 1.0765264143377 1.3571165517446 1.2532298535754 1.3782341047046 1.6158547590247 1.4839166254683 0.76689768798465 1.2959130436498 1.3544391207525 1.6348669561161 1.9079342971376 0.62173318727367 1.0008355475233 0.50402367026935 1.532504592301 1.3258382587572 0.84777180712684 1.0014447066939 1.7210995368239 0.52142032381582 1.2061646984317 1.0792489575099 1.296620676872 1.7546368550219 1.2457768724035 1.144461250626 1.8104095138449 1.9012962239323 1.5516543215339 1.7523275432773 1.6335452710734 1.2630848124585 0.79065460861164 0.76882209160058 1.4814567331558 1.081597982092 1.1941871483406 1.5001271683745 0.78455084869053 1.6727141367959 -0.11669509908665 1.8106963959459 1.618970451044 1.3675205891082 0.57085934822649 0.70530282265036 1.7763359973383 -0.013892425970076 1.16513176438 1.3973748151373 0.61390648188911 1.1594200855023 1.9094632569609 1.7997086603389 1.5252416423125 0.69396172149362 1.7503359944074 1.7050783108332 0.37175917646427 0.93762401322569 1.6503614543048 1.0254815524017 1.5608475710643 1.5561347766688 0.9541612189248 1.3820150326828 1.2479902552501 0.77514946719635 0.65136002828628 0.64193643100368 1.7667802013113 1.8638143928331 2.4873172645602 1.598069223561 0.9206974361372 1.6674987872582 1.4812662713629 0.96596740781462 1.5124411871943 1.7222796999187 0.5376503909301 1.7178371005719 0.89479594700849 1.7548346753398 1.6180269760726 0.76172912876131 1.1674274120344 1.5227511570469 1.4194920869113 1.2539877593939 0.91242747217526 1.6622752269638 1.8243803971526 0.86772951475298 1.7124993293902 1.7577343784238 0.51110737894848 1.9905181651949 1.4216792115535 1.196061726096 1.1713845212929 1.1235097403162 1.5955585873882 1.486078887097 1.7180925075747 0.94549723885859 1.7898156717004 1.3875969391068 1.4568851169157 1.3437680126628 1.0534513018342 0.67476633137453 1.9121169316917 1.8876713684192 1.4350737496768 1.9285498311172 1.0762143309343 1.041075414305 1.5426276491641 1.5082400683002 1.3590033788942 1.37047625925 1.5143853025284 1.0538512602262 1.850787922698 1.871311075823 1.4174227977268 1.0610310803995 0.80792680706604 1.4247707160343 1.2708135490204 0.31138291074815 1.5752798939379 1.7326331247468 1.2958807215172 1.8500118015393 1.3510039931122 1.0951085716059 1.9065200668613 1.5470770920249 0.73052016910854 0.74063917974137 1.3023329564961 1.814550909253 1.1913583793047 1.0941298533293 1.6145103077879 1.3220133422321 1.7398565799046 1.6284953320999 1.2339434122055 1.4014870029502 1.7991307139229 0.90475043959738 1.5940427840439 1.6592475944049 1.894358380672 1.5069960883454 1.2687000594616 1.7832099093593 1.7733297368553 1.8188666791312 1.5297958412654 1.4737805236392 1.524767114921 1.6108073585299 1.4840842422459 0.94775096279969 0.081289323603867 0.890903857903 0.80625175568674 0.78302529871195 1.5816276478674 1.3056985120201 1.7706103918223 1.258389036035 1.5361187609329 1.2873315996437 0.59901083252535 1.7744087783017 1.5666303860182 1.6554692802828 -0.33664536376109 1.8658275295636 1.6242170018898 1.0504263382213 1.8635408259424 1.1981625223142 1.222710761894 1.9338558705943 1.3138248297646 0.63510814743725 1.4653880591425 1.2142903213149 1.1087111408139 1.7957871904275 0.96469087384055 1.6564002352051 1.3328188576441 1.3433957294653 1.0502251615059 1.7872695202481 0.25274412425325 0.69939267315861 -0.50094084448605 1.3951049888879 1.466934576372 0.80704278839274 1.0408044253019 1.5957352739424 1.7850975000298 1.4232316189598 1.6335703700141 0.90048256995599 0.92705969095387 1.8657127881993 1.7445367784885 1.5062701880842 1.6175720584443 1.4984498654583 1.4266773100864 0.60678756119546 1.3909792133883 1.6838204399957 -0.12781385071473 1.3782804630798 1.8922947786175 1.4481480866752 1.4267674089315 1.2589191009805 0.89866600243516 0.45088698995375 1.5474792687045 0.82341333291409 1.3810425187527 1.4107527593563 1.5671064050075 1.6417997173477 1.7807426649242 1.8129656707599 0.35525718063697 1.4750069706275 1.1219514217855 0.42878309019101 1.8256749769396 -0.45789160654067 0.59474561778356 1.3236124757742 1.6966938029552 1.0197979838603 1.5006920330815 0.57646841284724 1.4384161851235 1.042286038483 1.2874189793724 0.98033659141616 1.0451062563731 1.9067157335354 1.5015472244037 0.73564632197714 -0.039863517791258 1.0915423936818 1.3341851108398 1.5770757552369 1.482002012863 0.97978892180203 1.8552435900984 1.3478011559447 1.5252459878979 1.4662798289217 0.78651059924449 1.5750672956204 1.5354228274214 1.9696388820923 1.45907669