# vtk DataFile Version 3.0
d-2__ created by libgimli-v1.5.0-1-g5991b6ac
ASCII
DATASET UNSTRUCTURED_GRID
POINTS 257 double
25.5	-0.25	0
25.643267391024	-0.375	0
25.690940791558	-0.19094079155751	0
28.625	-0.27380702240065	0
28.625	-0.13804348840204	0
28.518663902413	-0.18940103023301	0
28.458333333333	-0.087886572211468	0
28.416666666667	0	0
28.375	-0.13804348840204	0
28.291666666667	-0.087886572211468	0
28.333333333333	0	0
28.25	0	0
26.083333333333	0	0
26.041666666667	-0.13804348840203	0
26.125	-0.087886572211466	0
26.166666666667	0	0
26	0	0
26.708333333333	-0.13804348840203	0
26.666666666667	0	0
26.625	-0.087886572211466	0
26.208333333333	-0.07357428207177	0
26.75	0	0
26.791666666667	-0.087886572211464	0
26.333333333333	0	0
26.25	0	0
26.291666666667	-0.087886572211468	0
27.166666666667	0	0
27.208333333333	-0.07357428207177	0
27.25	0	0
26.416666666667	0	0
26.375	-0.13804348840204	0
26.458333333333	-0.087886572211468	0
27.291666666667	-0.087886572211468	0
27.333333333333	0	0
27.625	-0.13804348840204	0
27.518663902413	-0.18940103023301	0
27.625	-0.27380702240065	0
26.583333333333	0	0
28.916666666667	0	0
28.833333333333	0	0
28.875	-0.13804348840204	0
26.833333333333	0	0
26.875	-0.07357428207177	0
29.98747163413	-0.5056358037932	0
30.050519698408	-0.25547676721966	0
29.843533331918	-0.29816134131379	0
29.458333333333	-0.087886572211464	0
29.404607252882	-0.15094638411797	0
29.541666666667	-0.13804348840203	0
26.5	0	0
27.791666666667	-0.087886572211468	0
27.833333333333	0	0
27.75	0	0
27.231336097587	-0.18940103023302	0
27.125	-0.13804348840204	0
25.705488373266	-0.59091608366499	0
26.007921013115	-0.8717186506847	0
25.91135296792	-0.47048281487414	0
30.166666666667	0	0
30.208333333333	-0.087886572211464	0
30.25	0	0
27	0	0
26.916666666667	0	0
26.958333333333	-0.13804348840203	0
30.791666666667	-0.087886572211468	0
30.833333333333	0	0
30.75	0	0
27.041666666667	-0.087886572211464	0
27.083333333333	0	0
30.083333333333	0	0
30.125	-0.07357428207177	0
28.541666666667	-0.073574282071767	0
27.375	-0.13804348840204	0
27.416666666667	0	0
27.5	0	0
27.458333333333	-0.087886572211468	0
28.583333333333	0	0
28.666666666667	0	0
28.226291378505	-0.21877391554365	0
28.432011579996	-0.40775209656411	0
30.148002764253	-0.18940103023303	0
30.208717134119	-0.38392172835888	0
30.291666666667	-0.13804348840203	0
28.208333333333	-0.07357428207177	0
28.166666666667	0	0
28.125	-0.072182208352023	0
27.875	-0.13804348840204	0
26.237940586216	-0.15094638411797	0
27.916666666667	0	0
27.708333333333	-0.07357428207177	0
28.083333333333	0	0
28	0	0
28.041666666667	-0.13804348840203	0
26.190375288162	-0.21877391554366	0
27.958333333333	-0.087886572211464	0
26.541666666667	-0.073574282071767	0
26.571273919549	-0.15094638411796	0
26.317063962986	-0.25702488420529	0
27.541666666667	-0.073574282071767	0
28.5	0	0
29.583333333333	0	0
29.625	-0.087886572211466	0
28.791666666667	-0.087886572211468	0
26.203594889612	-0.40391444725954	0
27.583333333333	0	0
27.666666666667	0	0
28.75	0	0
28.958333333333	-0.087886572211464	0
29	0	0
29.041666666667	-0.13804348840203	0
28.708333333333	-0.07357428207177	0
29.083333333333	0	0
29.125	-0.087886572211466	0
29.166666666667	0	0
29.208333333333	-0.13804348840203	0
29.25	0	0
28.165334880767	-0.15260258505374	0
29.291666666667	-0.087886572211464	0
27.731336097587	-0.18940103023302	0
29.5	0	0
29.416666666667	0	0
29.333333333333	0	0
29.375	-0.07357428207177	0
29.666666666667	0	0
28.086941669094	-0.2859797646022	0
27.958333333333	-0.18219221742147	0
29.125	-0.18219221742148	0
29.228873378537	-0.27753669533404	0
29.708333333333	-0.07357428207177	0
29.041666666667	-0.23876614697008	0
28.958333333333	-0.18219221742147	0
29.833333333333	0	0
29.875	-0.13804348840204	0
29.916666666667	0	0
29.791666666667	-0.087886572211468	0
29.75	0	0
29.958333333333	-0.087886572211464	0
30	0	0
29.483730629652	-0.25702488420531	0
30.333333333333	0	0
30.375	-0.087886572211466	0
29.369620976373	-0.40603607246707	0
29.604159114629	-0.34842263547806	0
31.124752694808	-0.11296503030675	0
31	0	0
30.958333333333	-0.087886572211468	0
30.041666666667	-0.13804348840203	0
30.416666666667	0	0
30.458333333333	-0.07357428207177	0
30.875	-0.13804348840204	0
30.583333333333	0	0
30.541666666667	-0.13804348840203	0
30.625	-0.087886572211466	0
30.5	0	0
30.43533056908	-0.18940103023302	0
30.916666666667	0	0
30.385963434616	-0.36114994877356	0
30.708333333333	-0.07357428207177	0
30.666666666667	0	0
29.636111778917	-0.20065391017952	0
30.999752694808	-0.25100851870879	0
28.731336097587	-0.18940103023302	0
26.851997235747	-0.18940103023303	0
30.737940586216	-0.15094638411797	0
26.523708621495	-0.21877391554365	0
27.133853031742	-0.25547676721968	0
26.949480301592	-0.25547676721966	0
27.041666666667	-0.52911283384145	0
27.041666666667	-0.18219221742147	0
29.357041954828	-0.21877391554366	0
29.737940586216	-0.15094638411797	0
30.690375288162	-0.21877391554366	0
29.958333333333	-0.18219221742147	0
25.875	-0.11303967622539	0
25.75	0	0
26.650397296319	-0.25702488420526	0
27.292050467453	-0.38392172835888	0
27.414390113348	-0.63321254312708	0
27.469144028345	-0.36097200963104	0
27.848127708251	-0.28948918465343	0
28.848127708251	-0.28948918465343	0
28.726596951268	-0.4234584073117	0
29.731548923005	-0.26700761442393	0
30.817063962986	-0.25702488420529	0
26.031958747178	-0.33325463579056	0
26.523689393121	-0.44776195923934	0
29.184065504659	-0.43422319923747	0
29.545209981036	-0.61464357222601	0
30.552290248164	-0.29580321144285	0
31.25	0	0
26.800529041383	-0.37028063139366	0
29.130694908432	-0.28024272799092	0
28.907115884997	-0.43487734236883	0
31.5	-0.5	0
31.5	-0.25	0
31.356886217184	-0.375	0
31.308843572405	-0.19115642759521	0
31.5	0	0
27.681768476189	-0.55823447719905	0
29.041897355025	-0.3545575021244	0
28.950100433703	-0.28398118611486	0
29.746371622197	-0.43057135368151	0
29.045779100149	-0.5143168838031	0
27.615347366628	-0.83560735755964	0
27.971649595913	-0.56775148091581	0
28.235269600634	-0.41546210057925	0
28.346412380513	-0.73751448832674	0
28.007726950717	-0.98664640296265	0
26.322202955504	-0.72835150504623	0
29.798122080496	-0.68908130839227	0
30.703430397599	-0.40445925111313	0
30.914859484231	-0.44990795630246	0
29.247599241801	-0.70334449364573	0
31.053928463665	-0.58159990549132	0
31.221377875989	-0.67457110982012	0
31.225195424337	-0.49586438948828	0
30.530720924191	-0.4852517756918	0
30.323984230706	-0.57992151527177	0
25.84485407481	-1.2957460393421	0
25.743909551686	-0.8528010586154	0
30.746070739038	-0.72060716412098	0
29.604860290622	-0.8788438191921	0
29.043947453281	-1.1807973577914	0
29.54268225478	-1.3246684327942	0
29.849430697053	-0.99522786547226	0
30.043693421774	-0.75311160759413	0
28.849047319116	-0.69970565535729	0
31.000856094841	-0.87446921301307	0
31.5	-1	0
25.845623228308	-0.30002188546398	0
30.512369350266	-0.71824350459	0
30	-1.6666666666667	0
30.051778272566	-1.3024535658708	0
25.5	0	0
27.680522574649	-1.2514855461386	0
27.375	-1.6666666666667	0
27.75	-1.6666666666667	0
31.174325422113	-0.32450830281231	0
25.5	-0.5	0
26.747329141204	-0.71351083399284	0
25.5	-0.75	0
26.348572023727	-1.2023161679924	0
27.179597305363	-1.0673000334922	0
29.25	-1.6666666666667	0
25.5	-1	0
30.75	-1.6666666666667	0
31.013091550828	-1.3141602648437	0
30.625304590967	-1.106556793762	0
30.375	-1.6666666666667	0
30.189043391347	-0.96114657873573	0
28.064690440023	-1.391571216678	0
28.426745644615	-1.201505510398	0
25.5	-1.6666666666667	0
27	-1.6666666666667	0
26.25	-1.6666666666667	0
28.5	-1.6666666666667	0
31.5	-1.6666666666667	0
CELLS 429 1716
3	0	1	2	
3	3	4	5	
3	6	7	8	
3	9	10	11	
3	12	13	14	
3	14	15	12	
3	16	13	12	
3	17	18	19	
3	20	15	14	
3	7	10	8	
3	21	17	22	
3	23	24	25	
3	26	27	28	
3	29	30	31	
3	23	30	29	
3	28	32	33	
3	34	35	36	
3	19	18	37	
3	38	39	40	
3	22	41	21	
3	41	22	42	
3	43	44	45	
3	18	17	21	
3	46	47	48	
3	31	49	29	
3	50	51	52	
3	53	27	54	
3	55	56	57	
3	58	59	60	
3	61	62	63	
3	64	65	66	
3	67	68	61	
3	67	61	63	
3	69	70	58	
3	4	71	5	
3	72	73	33	
3	5	6	8	
3	74	73	75	
3	73	72	75	
3	76	4	77	
3	78	79	8	
3	80	81	82	
3	83	84	85	
3	50	86	51	
3	25	87	30	
3	86	88	51	
3	52	89	50	
3	90	91	92	
3	93	87	14	
3	94	92	91	
3	95	49	31	
3	9	8	10	
3	84	83	11	
3	19	95	96	
3	91	88	94	
3	25	30	23	
3	9	11	83	
3	97	30	87	
3	98	74	75	
3	99	71	76	
3	100	48	101	
3	33	32	72	
3	99	7	6	
3	41	42	62	
3	102	40	39	
3	71	99	6	
3	97	93	103	
3	104	34	105	
3	39	106	102	
3	74	98	104	
3	38	107	108	
3	107	109	108	
3	35	75	72	
3	106	110	102	
3	34	98	35	
3	28	27	32	
3	111	112	113	
3	109	111	108	
3	59	82	60	
3	113	114	115	
3	116	9	83	
3	114	117	115	
3	50	89	118	
3	119	120	46	
3	119	48	100	
3	110	106	77	
3	120	121	122	
3	89	52	105	
3	101	123	100	
3	124	92	125	
3	54	26	68	
3	114	126	127	
3	101	128	123	
3	129	109	130	
3	131	132	133	
3	134	131	135	
3	48	119	46	
3	115	117	121	
3	136	137	133	
3	47	138	48	
3	60	82	139	
3	82	140	139	
3	141	142	138	
3	143	144	145	
3	122	47	46	
3	146	137	136	
3	113	112	114	
3	134	132	131	
3	147	140	148	
3	149	65	64	
3	150	151	152	
3	150	153	151	
3	148	154	151	
3	147	148	153	
3	65	149	155	
3	59	58	70	
3	155	145	144	
3	82	81	156	
3	145	155	149	
3	146	69	137	
3	157	158	152	
3	154	140	82	
3	147	139	140	
3	101	48	159	
3	149	160	145	
3	102	110	161	
3	150	152	158	
3	42	22	162	
3	157	163	64	
3	5	71	6	
3	4	76	71	
3	85	84	90	
3	116	83	85	
3	96	31	164	
3	49	95	37	
3	15	20	24	
3	25	20	87	
3	14	13	93	
3	25	24	20	
3	165	166	167	
3	63	168	67	
3	54	68	67	
3	17	162	22	
3	63	62	42	
3	35	98	75	
3	34	104	98	
3	26	54	27	
3	63	42	162	
3	88	86	94	
3	125	94	86	
3	105	34	89	
3	118	89	34	
3	77	4	110	
3	161	110	4	
3	111	109	112	
3	126	112	109	
3	47	117	169	
3	120	122	46	
3	38	40	107	
3	130	107	40	
3	121	117	122	
3	117	114	169	
3	80	70	146	
3	123	128	135	
3	134	128	170	
3	159	48	138	
3	134	135	128	
3	163	152	171	
3	158	157	66	
3	154	148	140	
3	151	153	148	
3	69	146	70	
3	172	44	146	
3	9	78	8	
3	161	40	102	
3	90	92	85	
3	116	78	9	
3	92	94	125	
3	5	79	3	
3	164	31	30	
3	19	37	95	
3	173	16	174	
3	164	175	96	
3	17	19	96	
3	53	165	176	
3	53	32	27	
3	118	86	50	
3	175	17	96	
3	176	177	178	
3	118	36	179	
3	78	116	124	
3	180	3	181	
3	169	114	127	
3	114	112	126	
3	134	170	132	
3	133	132	136	
3	44	80	146	
3	146	136	172	
3	82	59	80	
3	152	151	171	
3	64	66	157	
3	80	59	70	
3	64	163	149	
3	170	101	159	
3	136	132	172	
3	85	92	116	
3	124	116	92	
3	97	164	30	
3	166	168	63	
3	14	87	20	
3	87	93	97	
3	117	47	122	
3	47	169	138	
3	101	170	128	
3	142	182	159	
3	132	45	172	
3	149	163	183	
3	31	96	95	
3	162	166	63	
3	184	93	13	
3	97	185	164	
3	156	154	82	
3	141	127	186	
3	142	141	187	
3	44	172	45	
3	152	163	157	
3	163	171	183	
3	103	93	184	
3	53	72	32	
3	154	188	151	
3	189	144	143	
3	185	175	164	
3	175	190	162	
3	118	179	86	
3	125	179	124	
3	109	107	130	
3	126	129	191	
3	161	180	40	
3	127	126	191	
3	169	141	138	
3	141	169	127	
3	125	86	179	
3	180	181	192	
3	193	194	195	
3	196	194	197	
3	149	183	160	
3	143	145	160	
3	167	176	165	
3	162	17	175	
3	198	178	177	
3	72	53	176	
3	118	34	36	
3	185	97	103	
3	126	109	129	
3	186	191	199	
3	180	130	40	
3	130	180	200	
3	161	4	3	
3	129	199	191	
3	138	142	159	
3	45	182	201	
3	130	200	129	
3	192	202	199	
3	202	186	199	
3	129	200	199	
3	142	187	201	
3	191	186	127	
3	180	192	200	
3	199	200	192	
3	180	161	3	
3	142	201	182	
3	54	67	168	
3	203	204	198	
3	79	5	8	
3	78	124	205	
3	182	170	159	
3	151	188	171	
3	185	190	175	
3	204	206	205	
3	201	43	45	
3	43	81	44	
3	207	206	204	
3	57	56	208	
3	44	81	80	
3	209	201	187	
3	35	72	178	
3	57	208	103	
3	13	16	173	
3	183	210	211	
3	141	212	187	
3	45	170	182	
3	213	214	215	
3	205	79	78	
3	216	156	217	
3	45	132	170	
3	196	197	189	
3	218	56	219	
3	178	198	36	
3	188	156	216	
3	220	211	210	
3	57	103	184	
3	204	179	198	
3	165	53	54	
3	221	222	223	
3	209	224	225	
3	43	217	81	
3	226	212	202	
3	214	227	228	
3	211	160	183	
3	210	171	188	
3	226	192	181	
3	193	215	214	
3	3	79	181	
3	205	206	79	
3	186	212	141	
3	212	186	202	
3	173	229	13	
3	167	177	176	
3	72	176	178	
3	206	226	181	
3	213	227	214	
3	217	230	216	
3	196	195	194	
3	231	232	223	
3	227	213	220	
3	206	181	79	
3	187	212	221	
3	173	174	2	
3	13	229	184	
3	174	233	2	
3	234	235	236	
3	196	189	143	
3	233	0	2	
3	160	237	143	
3	237	195	196	
3	1	0	238	
3	173	2	229	
3	177	203	198	
3	198	179	36	
3	239	190	185	
3	35	178	36	
3	192	226	202	
3	195	215	193	
3	188	216	210	
3	220	210	216	
3	213	237	211	
3	154	156	188	
3	124	179	204	
3	221	212	222	
3	240	219	55	
3	54	168	165	
3	196	143	237	
3	195	237	215	
3	55	1	238	
3	167	166	190	
3	2	1	229	
3	1	55	57	
3	190	166	162	
3	204	205	124	
3	241	208	56	
3	242	167	239	
3	223	222	243	
3	156	81	217	
3	160	211	237	
3	213	215	237	
3	183	171	210	
3	228	193	214	
3	219	244	218	
3	56	55	219	
3	184	229	57	
3	57	229	1	
3	220	213	211	
3	245	246	247	
3	230	220	216	
3	220	247	227	
3	248	247	232	
3	228	227	246	
3	55	238	240	
3	249	230	217	
3	247	249	232	
3	166	165	168	
3	221	209	187	
3	43	225	217	
3	209	43	201	
3	247	246	227	
3	190	239	167	
3	207	204	203	
3	208	185	103	
3	242	203	177	
3	207	250	251	
3	240	244	219	
3	252	218	244	
3	224	209	221	
3	217	225	249	
3	43	209	225	
3	241	242	239	
3	167	242	177	
3	253	242	241	
3	56	218	241	
3	212	226	222	
3	249	225	224	
3	234	250	207	
3	239	185	208	
3	231	223	243	
3	224	232	249	
3	252	254	218	
3	241	218	254	
3	253	241	254	
3	239	208	241	
3	206	207	251	
3	224	221	223	
3	223	232	224	
3	248	245	247	
3	234	207	203	
3	250	255	251	
3	251	226	206	
3	255	243	222	
3	249	247	230	
3	220	230	247	
3	203	242	234	
3	235	242	253	
3	255	222	251	
3	226	251	222	
3	232	231	248	
3	245	256	246	
3	228	246	256	
3	242	235	234	
3	234	236	250	
3	255	250	236	
CELL_TYPES 429
5 5 5 5 5 5 5 5 5 5 5 5 5 5 5 5 5 5 5 5 5 5 5 5 5 5 5 5 5 5 5 5 5 5 5 5 5 5 5 5 5 5 5 5 5 5 5 5 5 5 5 5 5 5 5 5 5 5 5 5 5 5 5 5 5 5 5 5 5 5 5 5 5 5 5 5 5 5 5 5 5 5 5 5 5 5 5 5 5 5 5 5 5 5 5 5 5 5 5 5 5 5 5 5 5 5 5 5 5 5 5 5 5 5 5 5 5 5 5 5 5 5 5 5 5 5 5 5 5 5 5 5 5 5 5 5 5 5 5 5 5 5 5 5 5 5 5 5 5 5 5 5 5 5 5 5 5 5 5 5 5 5 5 5 5 5 5 5 5 5 5 5 5 5 5 5 5 5 5 5 5 5 5 5 5 5 5 5 5 5 5 5 5 5 5 5 5 5 5 5 5 5 5 5 5 5 5 5 5 5 5 5 5 5 5 5 5 5 5 5 5 5 5 5 5 5 5 5 5 5 5 5 5 5 5 5 5 5 5 5 5 5 5 5 5 5 5 5 5 5 5 5 5 5 5 5 5 5 5 5 5 5 5 5 5 5 5 5 5 5 5 5 5 5 5 5 5 5 5 5 5 5 5 5 5 5 5 5 5 5 5 5 5 5 5 5 5 5 5 5 5 5 5 5 5 5 5 5 5 5 5 5 5 5 5 5 5 5 5 5 5 5 5 5 5 5 5 5 5 5 5 5 5 5 5 5 5 5 5 5 5 5 5 5 5 5 5 5 5 5 5 5 5 5 5 5 5 5 5 5 5 5 5 5 5 5 5 5 5 5 5 5 5 5 5 5 5 5 5 5 5 5 5 5 5 5 5 5 5 5 5 5 5 5 5 5 5 5 5 5 5 5 5 5 5 5 5 5 5 5 5 5 5 5 5 5 5 5 5 5 5 5 5 5 5 5 5 5 5 
CELL_DATA 429
SCALARS Coverage double 1
LOOKUP_TABLE default
1.6954126848093 2.5595901379457 2.9550895289027 3.4851802458629 2.63039754142 2.8114734973093 3.082075614767 2.8839570627164 2.7040247507947 3.2032506287079 2.8621855063014 3.068391657087 3.3916635758486 2.9427293399872 2.945209735622 3.4224976153581 2.5867594947326 3.03993965733 3.2129949489966 3.3831104603974 3.0565669374803 1.8392014176884 3.3944886786237 2.8512544274185 3.3579759159566 3.4937825835393 2.6819589708829 1.2791598589886 3.076409387536 3.397409279298 2.0404785957651 3.4872924562587 2.9884089192193 2.7641335365211 2.7908955910895 3.0433949260197 2.7447225724262 3.0672267656589 2.7845757155129 3.2557192649066 2.5285276084203 2.5206375228513 3.1057721358113 3.0782240030096 2.503698186049 3.175842829007 3.1064290446228 3.4870207356865 2.4770185209774 2.9477935109159 2.8645754285182 3.1428013258361 3.3958061510301 2.6992898607693 3.3842987286708 2.6790235605437 2.9667989965336 2.3987394042831 2.7626733676317 3.2500645680961 2.8203102245374 3.0970163999015 3.2181075413014 3.1736204342692 3.0350551664072 2.8696889987139 2.1768600029673 3.135643637743 3.4156017373115 3.1191804449535 3.6991582258194 3.2078654245234 2.6649745944376 3.1447160862722 2.7639754899352 3.0995446903844 3.092636493981 3.7069559820991 3.2782347374071 3.2740856922492 2.8745717282999 3.2684044692639 2.9278712957048 2.7897540869658 3.2127609535317 3.4943433626696 2.9800059558639 3.4811970712321 3.0150631352215 2.6425468623298 3.0296369184898 2.5301477879528 3.3087983063428 2.8806275096205 3.2113990447178 3.7644689023206 2.7583452802307 3.244092229679 3.116534105559 2.615370653459 3.2726817022477 3.1363960466124 2.1888074034493 2.8087187892267 2.8873318412518 3.037019248054 2.9908055687939 3.3245560227089 3.3241886445857 2.5406127962755 2.8839680932249 3.7548495228358 2.837055240787 3.7400560130176 2.9028362165881 2.8376192450252 2.7804641527346 2.4969808832294 2.7882347488298 3.3912792058991 2.6802579083637 2.8187659313665 3.2738402294089 2.6719467982847 2.5892010647052 2.9177830229151 2.6512335767489 2.7764306035291 2.0979586326161 2.7344419133969 3.0041419337292 3.1644723962556 2.969279734876 2.6020256166352 3.3371990812084 3.0196853922239 2.5300136176359 2.4206703452469 2.686775504511 2.3042704719638 2.779155548781 2.9877323357448 2.6882006546714 2.9875341455251 2.6502384775437 2.8749687502941 2.9596588913639 2.7211593945157 3.0217041644108 2.7790722178799 3.0893452688485 2.9360722539748 3.2446926212335 3.0202857840449 3.1532919604838 2.8959567246557 3.0924983923166 2.8942030821115 3.2085937853182 2.9298145644381 3.0656089518276 3.0077147789113 2.9741593766278 3.7058382973262 3.2724048197481 2.4956947610849 3.5120436569595 2.0562533516066 2.8886864948512 2.923762628851 3.1667991408608 2.9940730809176 2.5046292438836 2.8379802889612 2.8141214868458 3.0903710645933 2.7738981050722 2.8274100231014 2.3779999943651 2.6513083239727 2.9481937842879 2.8732370181325 2.4472396278356 2.6738602089951 2.4046375447353 2.8500006344446 2.8591800899324 2.5160042524348 2.1135968389327 2.5754029802769 2.6106318632094 2.3235502580856 2.8209958030197 2.6640174120703 3.137812188227 2.908335869548 2.6566232708569 2.6517623798157 2.9920236543575 2.4667485542036 2.295730397045 3.0589866703819 2.508032849505 3.1171476171824 2.6002712838127 2.9451223553972 2.7328459904121 2.4515950967411 2.5908403699233 2.7005681891013 2.330539791259 3.1488378418753 2.8348852963903 3.2551108176401 2.519602411409 2.3821215632562 2.2098504866781 2.7610423828445 2.5739730635911 2.2394191911114 2.2603741277657 2.5544832730066 2.1991419793911 1.7837811970954 2.2633052341272 2.3014070331509 2.1171651639724 2.0655285898292 2.9168133545632 2.6251148118002 2.7621605431688 2.2811230828875 2.3848234034738 2.6917196906592 2.5091570694463 3.0753935304955 2.5217788941666 2.5704707622204 2.408845988208 2.4774941116855 2.4438984768321 2.6237185861336 2.2175911703939 1.130507160109 1.6913334719293 2.2211818594347 1.9555890022694 2.2342321184828 2.5329255158832 2.0252448804399 2.6653871931879 2.7529588640696 2.0931522530258 2.7081962277734 2.2595910137196 2.671788860807 2.536882284076 2.756190597443 2.3939608657747 2.2394497174673 2.3132541589447 2.6589369989535 2.1642410231631 2.1301972027356 2.4720776620221 1.8226884783066 2.2325084555121 2.3338735191058 2.3164792168813 2.5115266598227 2.168682519474 2.7238148674612 1.8747663046453 2.4887627798688 2.3867366459075 2.7909938231811 2.0108770320827 2.2078598361787 2.0076909286185 1.9294130467223 1.8102038090458 1.7698033077946 1.3405508058834 2.3759547072272 1.5067854307299 2.4770635609364 1.6481735158982 2.3550926960883 1.5372574481578 1.6944360322763 2.7382096866192 0.70356938503657 2.3008780809467 1.7546983080776 2.7773066164635 1.9811278468885 0.94047959444261 2.2070754899287 2.0474338411905 1.0471330426562 1.8302936124153 2.1220977138375 2.5339243852983 0.99336131260451 1.1939079910941 1.721867611421 1.8289710748653 0.3475231489103 1.8263109425821 1.7417469356814 2.0594353106156 0.65297229613874 2.2256573493777 2.0923614621438 1.9093527767621 1.9259580993171 2.2068496010425 2.0231273900134 2.4163369391843 1.9216769241969 0.54021772067787 1.4281282508367 1.3806432242019 0.72675171925062 0.55459636242119 2.0718987430585 1.411136855825 2.2558400184001 2.0857910140086 2.0139809239492 0.95695550119166 2.1709720712347 1.7984805847083 1.5059472894183 1.3437197805753 1.5038754741436 2.0827137560462 1.8113779273018 2.293919846384 1.9645721429076 2.4287216229901 2.0144217665881 0.89485038427714 1.5428432447075 1.2470737989515 0.99397495109435 2.2984342581798 2.2548816142382 1.2834891567982 1.0370034724508 2.5475049922417 1.5868360119742 1.0013350364005 1.3493936391532 2.2322379747952 1.8233326980354 1.4623529664557 2.4041422503654 2.1850223018147 1.1441568364222 1.6403080701768 0.85322203259591 2.0354682526752 1.355205671029 0.86269542789088 1.6802662058292 0.47007687930553 0.82738717214897 1.0661235364511 1.8369530892837 1.6882716495374 0.81830289413102 0.27418006321947 0.95486242971578 0.47640233531091 0.46973437136651 0.35127811440803 1.1663021147157 1.0287959884145 0.61850451327904 2.4806415978089 1.3179456495567 1.3132308186654 1.5505950398362 0.28347256633374 1.9585677200572 1.6993088353501 1.8006849467033 1.5893713791542 1.3192743516125 0.91706026299143 0.65055636120752 1.1752129189137 1.1580113008077 1.3507080799062 1.251955954712 1.7052445393945 0.95585097760864 0.91098662364844 1.5563613736847 1.0247393311837 1.2707133360312 1.6876986173736 0.72788941916983 0.8961946811212 0.6049766805291 0.75323528241625 0.759823240466 1.3365921701082 1.5598192159155 1.0345941143658 0.86592563721199 0.25794112862315 1.4341836793567 1.1334910051742 1.6594349344238 0.93690952407267 0.80969089910841 0.5931037842491 1.3600595754044 0.91862669186307 1.1057520424947 1.405412795571 0.47888618284099 0.24168379393122 0.202737469886 1.0956471736123 1.0805663028435 1.0165048337977 
SCALARS Marker double 1
LOOKUP_TABLE default
0 1 2 3 4 5 6 7 8 9 10 11 12 13 14 15 16 17 18 19 20 21 22 23 24 25 26 27 28 29 30 31 32 33 34 35 36 37 38 39 40 41 42 43 44 45 46 47 48 49 50 51 52 53 54 55 56 57 58 59 60 61 62 63 64 65 66 67 68 69 70 71 72 73 74 75 76 77 78 79 80 81 82 83 84 85 86 87 88 89 90 91 92 93 94 95 96 97 98 99 100 101 102 103 104 105 106 107 108 109 110 111 112 113 114 115 116 117 118 119 120 121 122 123 124 125 126 127 128 129 130 131 132 133 134 135 136 137 138 139 140 141 142 143 144 145 146 147 148 149 150 151 152 153 154 155 156 157 158 159 160 161 162 163 164 165 166 167 168 169 170 171 172 173 174 175 176 177 178 179 180 181 182 183 184 185 186 187 188 189 190 191 192 193 194 195 196 197 198 199 200 201 202 203 204 205 206 207 208 209 210 211 212 213 214 215 216 217 218 219 220 221 222 223 224 225 226 227 228 229 230 231 232 233 234 235 236 237 238 239 240 241 242 243 244 245 246 247 248 249 250 251 252 253 254 255 256 257 258 259 260 261 262 263 264 265 266 267 268 269 270 271 272 273 274 275 276 277 278 279 280 281 282 283 284 285 286 287 288 289 290 291 292 293 294 295 296 297 298 299 300 301 302 303 304 305 306 307 308 309 310 311 312 313 314 315 316 317 318 319 320 321 322 323 324 325 326 327 328 329 330 331 332 333 334 335 336 337 338 339 340 341 342 343 344 345 346 347 348 349 350 351 352 353 354 355 356 357 358 359 360 361 362 363 364 365 366 367 368 369 370 371 372 373 374 375 376 377 378 379 380 381 382 383 384 385 386 387 388 389 390 391 392 393 394 395 396 397 398 399 400 401 402 403 404 405 406 407 408 409 410 411 412 413 414 415 416 417 418 419 420 421 422 423 424 425 426 427 428 
SCALARS Resistivity double 1
LOOKUP_TABLE default
138.4707997391 91.944085364036 54.578433647201 84.186097448057 188.34288786146 223.236543474 196.90026339843 71.9129450622 185.50829411209 74.925621512461 88.895498459746 61.269422678817 34.940686819492 145.86235563203 110.74566476619 219.08685190319 68.606588816963 58.892457862713 61.740352980068 70.628534947241 75.272387808272 275.17006372769 93.295579420025 60.651561914844 183.87757647069 56.655335684931 70.627656193703 301.1419625795 105.46071995953 79.772584809122 9.5014341954303 61.356934895166 80.074095841012 63.487748850551 63.212641913234 112.82800825824 55.827210897799 41.649613616448 59.971123686749 101.86654627223 99.336299596353 90.451267869841 75.301617251298 59.786905284103 85.226204429217 46.921121911192 95.007953598709 126.45603005139 114.77826105175 64.733298214477 109.95270635651 84.598761901685 67.253785081783 74.674614114928 37.11373326466 77.9753076271 70.609243139814 86.737420631087 44.522301328579 45.865677630303 27.613639973542 154.65914085287 43.639214987364 70.904328896946 57.514546012982 39.83775139111 96.106237819074 112.31473447104 48.749209065922 61.65819956633 101.82601856163 121.22003648601 53.967512404817 80.081612408899 58.182301759263 101.32410563304 30.412988166898 100.092714399 70.621698654357 11.371240632906 75.07341122602 117.26442374443 87.70311998031 67.966117768649 9.4802789861157 120.16944478708 193.04455109926 139.24864915115 68.301303369232 85.261491638087 37.201212116218 83.965797850964 146.19275587121 147.68798007478 29.322869692604 63.963080122377 31.365663887413 298.6113520314 6.6166676599889 69.904728724548 35.275054206551 52.280537246115 168.30600840903 32.793876438189 108.26993925031 21.337024571305 20.654592159832 61.738805419988 69.798553206361 46.200780106761 13.228324264737 41.731318959983 85.342219112937 63.571133718732 162.11374832347 68.901434589185 75.501367693918 183.62751759534 125.08741337789 119.27724751924 0.81269910599544 94.12389636833 49.936432817078 51.230784707391 80.367081384568 90.073584149897 2.7652286815165 90.094118270821 5.7975795934297 47.560836059812 64.735206395807 88.225768673897 75.25220060586 106.7540102886 57.84112833804 177.05064213169 102.23395721638 128.69968884793 103.70299457715 95.577215030988 81.231972861892 52.368397812923 94.577709924682 80.81425319411 47.378907084515 72.780862515287 40.478099079104 92.572068513572 47.337035442219 66.152413440036 115.16770515239 90.530959453587 118.49775592823 112.26519698491 62.218573772327 72.44757281673 140.36958075992 118.57284418072 86.626482034741 117.03642954574 241.39520523688 127.61571030773 46.382951807548 278.79335098135 147.71846295112 69.704581718416 167.91826848867 11.067762231901 0.1412800930748 92.717716293238 66.998991708995 66.432414098312 49.840552061387 90.719054703554 83.641712661855 96.223802983816 87.727159064261 70.642780544804 103.23733790089 120.92233957441 58.8593641586 33.543905184656 97.635559370012 76.019412783342 92.377473866003 96.320103222595 78.527705070635 87.392934800769 123.59889239658 92.83778313032 100.76958440237 171.1020893809 107.08623364311 48.299353608172 121.84754376618 17.128612893374 53.87504343333 29.494207743735 58.233288307897 15.018813139956 1.9125518547526 50.711980972416 25.536881357725 103.94388150053 33.719687101452 82.48917740441 88.0103281739 96.688237014423 89.737762929308 134.05712561333 94.7990684069 169.0417295727 104.83394157277 134.41228195837 199.11065235601 86.203825051594 32.82964773536 98.332249707703 96.145693025512 103.09850082425 96.450846954124 136.77588626761 165.04582850838 323.76530905476 105.07681250413 3.8698100365733 21.11760262719 104.37312086576 116.87819635489 67.299373625731 0.89250784953868 98.995706585429 100.43265763408 86.097456457017 102.23423631931 134.16238145294 137.264391091 120.01500181961 120.04494456882 123.22404850671 122.11398520949 84.360640244128 203.5847085238 10.517906623602 3.7018630125442 49.517537378861 37.933043504542 103.12620268448 93.703725409662 145.77760640277 96.147273960052 80.049651983715 104.89989111458 117.9600059997 184.70915306399 137.55540093416 175.54075773677 118.38887430567 173.18216662844 126.51165303551 375.62089815388 176.97406986013 240.70113034102 231.5025611485 193.99026720996 496.59835387351 152.16461076481 204.39197950958 218.9075560313 141.65758489781 347.78807145572 70.555572212942 185.05795984774 79.306316120449 126.84891189372 168.84905626697 29.435606662356 108.45014416006 142.68976283925 531.51416592944 281.96999388741 158.10177807063 282.25038754156 104.81946710405 877.51106156779 68.747820916627 177.288872244 71.71888673033 30.781410347582 410.21408066085 228.31805935623 33.672871350448 122.71596325113 249.81733709625 151.40253876668 2.232268806248 494.07384517142 116.83562589402 122.9781932476 46.759825304222 130.5934988344 158.15046761635 81.459885390487 1162.6719819919 1551.3808138983 541.92779993671 309.57128489356 70.175184970559 31.811360969423 32.714697005944 214.63426069972 29.01833256403 143.73572315062 134.92753326068 260.8908160304 268.18017429337 78.285831869551 135.4603719416 89.148960426706 174.30464517273 55.546821889767 325.31901619285 6.7963685559211 1451.8584974059 74.199132998384 149.21165730921 724.93710680692 60.218238229196 94.989870910638 84.101919930964 310.22600513513 1.9290108451918 112.07044975063 16.941141877705 8.353814826432 186.60541473041 82.369812841872 187.62061547096 122.53840600503 139.24449847307 79.911938898409 256.55916534846 16.455578160159 65.889672905704 81.484122490052 28.633956765678 109.85484334397 140.64999862205 767.90857113433 395.37178418277 80.196336519338 6.0774141654143 14.749525743061 240.15851424575 107.54286771556 121.55798025405 226.31900309873 101.23005493786 144.02601153662 369.21404686252 213.66590445533 1043.8469687014 327.46058538775 23.338847101118 23.940983450736 25.818237129005 45.048913520588 544.84083578928 396.45024811987 123.61748206659 152.15137204465 45.34479649892 295.53923967453 195.94714269644 158.05661601165 950.76445694535 138.19266509094 315.19483793185 632.14238825521 1025.9674586934 88.460832086087 1041.1925797264 1085.193504278 980.28804335005 190.6650255558 142.61972212839 186.96222786646 150.92471905066 219.15623641228 217.54332563522 473.5228946878 641.97900818483 1443.4590135614 1101.1070703126 1326.1294117125 339.99740520511 192.07551328578 490.46929843305 510.66804864779 414.66984918646 1474.3757792202 233.51460843026 186.62612210978 1340.1300780318 1467.5665658251 676.81065290671 627.00725876643 617.14312197669 304.64899009455 172.59356696702 1518.851134894 1601.5265628019 545.84167084142 224.91670498963 281.23816337009 186.95004561508 654.460709536 568.73339298402 266.65800996563 262.74461222539 430.57308141341 376.96807256878 295.71833019134 1251.6065916735 242.84165264452 192.05072810292 340.86362373501 273.32669626152 279.17950399591 
SCALARS Resistivity_(log10) double 1
LOOKUP_TABLE default