# vtk DataFile Version 3.0
d-3__ created by libgimli-v1.5.0-1-g5991b6ac
ASCII
DATASET UNSTRUCTURED_GRID
POINTS 1483 double
3.3802423101098	12.435481574566	-0.57001420684378
3	12	-0.2857142857143
3.4959596309848	11.998298039034	0
3.2490070092203	12.168560129388	0
6.0395510135596	13.367156253372	-1.2757999763971
6.5930002103947	12.023472734859	-1.2922192071349
5.4998599382803	12.552571297657	-0.59337769664261
5.29662096318	11.932351047571	-1.5392209346082
5.6153020589615	9.1440579133635	-1.0774777831171
5.7237069713611	8.5589744845549	-0.30827017969781
5	9	-0.2857142857143
5.3151026533923	8.4249591108801	-0.38240156963578
2.3178923476779	4.1926464382665	0
2.5373292327812	4.4716333182052	-0.48281884804687
2.3342974478463	4.0018571812202	-0.30572640106363
1.9994701911036	4.4258543307655	0
4.8968211033092	12.507755029533	0
5	12	-0.2857142857143
5.2932790228536	12.494788035524	0
0	0	-0.2857142857143
0.54768630893449	0.55020446432687	-0.60775225926193
-0.16846798780902	-0.24002860812406	-0.65332445545953
-0.28063481777066	0.41453578455018	-0.44890469943706
7.7	3.575	0
7.3102059000399	3.7470939102263	0
7.7	3.6732286664853	-0.53772532608145
7.3176226410905	3.2857280588852	0
-0.7	-0.10798167686939	-0.47517111104905
-0.7	-0.57707899562378	-1.1376990549501
-0.7	-0.61986630133594	-0.43486724047509
6.3962361866998	10.611290418241	-1.3182185489848
6.565939673393	9.5694509864085	-0.57379796778735
7.1295911592009	10.496363016677	-0.48219980545192
6.3839624611364	10.341052129245	-0.35036617584397
7.7	14.3	-2.5
6.7623683783591	12.987112326146	-2.233077027779
7.7	13.059020885286	-3.3539705522597
7.7	13.327367479896	-2.129915020979
1	6	0
1	6	-0.2857142857143
0.93236760237426	6.49128333619	0
1.3454573625665	6.353105459937	0
2	5	-0.2857142857143
2.1684298754346	4.7403793023811	0
3.0226729813355	8.4836106439452	0
2.5164096947204	8.910651700233	-0.41109082170818
3.4071201441719	8.4167381876838	-0.59109415332551
2.5374808587914	8.1383747261781	-0.35604109466584
6.2778911301719	14.3	-0.61136458754231
6.2225356773765	13.691717475418	0
6.5208076177088	13.495118289851	-0.49928801204061
6.7358646795693	14.3	-0.39005656748015
5.7965188279432	13.281940723964	0
5.5320359851605	12.925291312368	0
5.353113789845	13.264183036004	0
5.5919457801018	13.101154188917	-0.33537516396337
7	10	-0.2857142857143
7	10	0
6.5010306427949	10.010760669106	0
6.8196744207924	9.5136576917357	0
7.7	1.1375	0
7.7	1.6430719769933	-0.42557297445049
7.1939383721229	1.4724531054162	0
7.7	1.625	0
6.3572581294301	1.4772201134971	-0.96507376287322
6.5574763981385	0.84898833643366	-0.48332647821142
6.7774291048203	1.7003141153393	-0.4123635555875
6.1433933962903	1.4220674799247	-0.28622251631329
-0.7	9.1984657118068	-1.9278839451739
0.33291529395702	8.3305676904572	-1.2970017952003
-0.7	8.1442617177323	-1.0898260028896
-0.7	7.644268062563	-2.0766032868031
4.508194357046	8.6258793740749	-0.60770874662543
5.0095189690676	8.5009469809039	0
4.7609249278557	8.7686419230913	0
6.2306672701993	2.67753718	0
6.6360398560532	2.4670661479797	-0.44686919005428
6.4910302172834	2.4939022421641	0
6.1550873755842	2.4572757142813	-0.33684154297057
1	1	0
1	1	-0.2857142857143
1.4901571161019	0.99574153349402	0
1.1736530561382	0.72346383359363	0
2	4	-0.2857142857143
2	4	0
1.6440539242474	4.1532454240512	0
7.7	6.9501255673919	-0.74418826283982
7	7	-0.2857142857143
6.7521552376889	6.497772044976	-0.66059363300197
7.7	6.3887218416049	-0.46884913673037
5.9482896260331	7.5800048202495	0
6	8	-0.2857142857143
6.3095291646476	7.6896230263426	0
6.1432247512519	7.3579252770212	-0.41388970597853
3.501272057481	12.437082442362	0
3.3297831413816	12.805427976196	0
3.6823393063421	12.851671876304	0
1.3671388209093	10.633374397873	-0.4152980605108
0.95248763025238	9.835503527633	-1.7808732395437
2.3518021577517	10.495200039554	-0.50930668321109
1.5373497846005	10.021005779616	-0.41781002197689
6.2054585007625	14.3	-1.3884356875417
6.9442913034148	14.3	-0.89278753613404
1	8	-0.2857142857143
0.54167473049383	7.7707286368021	-0.37916050195481
0.44975345341211	8.3808810318019	-0.31136669048163
1.022076618805	8.4121844676845	-0.45670843222423
0.89173681858685	4.6122796653579	0
1	5	-0.2857142857143
1.2386083631299	4.6841794176855	0
1.3923592539172	4.7130963353432	-0.25978315417498
6.4242299347383	5.6840176993625	-0.35514079575845
6	5	-0.2857142857143
6.3424541740313	5.2754910113697	0
6.0447933133998	5.5049876953384	0
5	2	0
5	2	-0.2857142857143
5.5190673049038	1.9208326821789	0
5.2306444928855	1.6547875838902	0
5	13	-0.2857142857143
5.257359886178	13.540476325965	-0.63012071696907
0	6	0
0	6	-0.2857142857143
0.066757795936057	6.5008369551487	0
0.29243888553297	6.1743316976873	0
7	9	-0.2857142857143
6.5033796411008	8.9981073418213	0
6.5607922823332	8.4440251373986	-0.63122800754088
6.811726958696	8.7028726276344	0
7	5	0
7	5	-0.2857142857143
6.4986646723997	4.9192017057136	0
6.7141996182955	5.3303468264748	0
7.7	9.5988491781319	-7.4736716195817
3.1507199964473	10.394874003632	-10
4.8663216648816	7.3792654266676	-10
5.1015502438684	11.553440122249	-6.405163284031
7	7	0
6.9589015254993	7.4884372736447	0
6.761634669635	7.2408783569561	0
6.0574437090791	0.20878539066113	-1.8779478182653
4.9838025543493	-1.3	-2.1179854334408
6.0308685444023	-1.3	-3.5425074203685
6.440522236286	-1.3	-2.0103523001383
3	2	0
3	2	-0.2857142857143
3.0105846506	1.4855923993349	0
2.6480485575569	1.6700894103009	0
5.0527203000088	13.535479310798	-1.5373151531841
5.0246691847863	14.3	-1.036131499603
4.1300067609037	14.3	-1.2024507502556
4.4744197407865	13.547407617085	-0.63586628370479
2.5813517996865	9.6286485974984	-1.0236151505326
2.2955236368793	9.5881134365907	-0.29154811067367
3	10	-0.2857142857143
6.4248505083522	12.522044346884	-0.42559946143008
6.465073985677	12.51782996062	0
6.1644652963082	12.36965297069	0
6.3832046574853	12.135664356038	0
2.9908655166747	12.498069465114	0
1.984703560175	7.5906357794687	-0.50777967523709
1.0508409188237	7.354634772545	-0.95680796450018
1.4515039911109	6.5829264157992	-0.56173008002516
1.3866216751759	7.5118935788728	-0.35488362790971
2.45	14.3	0
2.2168273415577	13.627179222019	0
2.4554693735383	13.497784276817	-0.39727655195048
3.032551925238	13.762466584345	0
6	11	-0.2857142857143
6	11	0
6.4843452951013	10.966514281357	0
6.2440599782187	11.234710090977	0
5.5	-0.5576923076923	0
5.247952850371	-0.29481663567353	0
5.5452342683804	-0.096294524539033	-0.49623355575102
5.1016398375367	-0.61489919294387	-0.38960315167385
2.3232496140345	4.0110297188843	-1.3835068702753
1.6586320571652	5.8268322896535	-1.5213554090482
0.71002746520551	3.976198472286	-1.505315421377
1.3296414347056	4.9089994064226	-0.82629172929831
5.6	14.3	0
4.6510156691765	14.3	-0.56274723813486
-0.090060726359069	5.5363033123106	-0.44581840212762
0	5	-0.2857142857143
-0.38456492153953	5.1805342841446	0
-0.7	5.0205501441189	-0.32507149572551
3	13	-0.2857142857143
5.1848675157348	3.2965660830064	0
5.4046165570399	2.9501485228537	-0.43988698776777
5.486289771732	3.4981838484395	0
5.4682750147717	3.0660382780841	0
0	8	0
0	8	-0.2857142857143
0.5178658825659	8.020802151125	0
0.25864598874121	7.6639427314904	0
6.7098208972434	7.2950601162224	-1.3269022195366
7.7	7.949747446039	-0.91833665053736
7.1577047253729	7.4844276204668	-0.64272934527953
4.5892004575887	3.5369189576522	-0.55981654583505
4.4420188491858	3.4660037233365	0
4.711527897636	3.7375259681419	0
4.3494632088922	3.8023533541114	0
4	6	-0.2857142857143
4	6	0
3.9913416390327	5.4988534517732	0
4.5093195747582	5.724109532591	0
1.4	14.3	0
1.5	13.55769230769	0
0.89284349994875	13.714781914708	0
1.2292962491126	13.670420041977	-0.37788942865261
4	9	-0.2857142857143
4	9	0
4.5502440226935	9.051086551406	0
4.2963154051231	9.3907765114078	0
4.5321110402369	7.5028925212181	-0.60552533206341
3.5085861108931	7.3893844432383	-0.64873189634878
4.0050480592533	7.4977657988521	0
4	8	-0.2857142857143
5.8961095330637	-1.3	-1.0125722125019
4.8982045728458	-1.3	-0.82217786726149
5.2296982103621	-0.31621891710017	-1.0679345669244
4.9010483556055	1.478997710586	0
4.5631533182214	1.9074133665015	-0.41231302454656
5.0320642355688	1.4518180616801	-0.36509190625555
3.5357179442866	0.46434418042464	-0.60031716899974
3.9407498163335	-0.4411178910574	-1.1087857494349
3.2826824657074	-0.47747544834602	-0.50866572047373
2.802260468126	-0.22902113419037	-1.4542342115515
1	13	0
1	13	-0.2857142857143
1.1191337005982	13.329221525091	0
1.4884720276527	13.02962190928	0
-0.21681247778723	8.5792000107362	0
-0.35118339610893	9.0917088673227	0
-0.7	9.0968147603684	-0.35256881313688
-0.7	8.9375	0
0.51662331659314	-0.40156299802931	-0.67799391089861
0.13474046208011	-1.3	-0.85683826964205
-0.16941603187845	-0.57512411281067	-1.4019543009948
6	13	-0.2857142857143
6	13	0
5.8068477026831	12.499749736815	0
6.1890713266052	12.67695534294	0
2.5984255358496	5.4578875982232	-0.67264342113488
2.2172109403706	5.4325217687574	0
2.4824672258873	4.9705265694472	0
2.6598112065826	5.3330483814808	0
-0.7	0.5146532048839	-0.51418317722913
-0.7	1.0492756199945	-0.88024243711367
-0.37698118088761	0.89350663208132	-0.33360419980628
-0.25096134668857	0.95145340086689	-0.90448711690516
6	2	-0.2857142857143
5.4002158317804	1.7678073061348	-0.50898482673054
5.8183999242367	2.5164331321023	-1.0840550371572
-0.13917028340788	5.5182991349521	0
0.31578338747353	5.7567158690792	0
6	12	0
6	12	-0.2857142857143
5.513035862904	11.994753403328	0
1.5285536174902	4.2362319729344	-0.43851980589517
0.57100063419133	12.499134596467	-0.56842257570583
1.2565986295401	13.42724014175	-1.149557674079
1.4486633887383	12.69302170761	-0.31714242590465
6.65	-1.3	0
6.903739311401	-1.3	-1.0953527719967
6.3980205255852	-0.38130956989248	-0.5855507841991
7.2175457166608	-0.5710098692386	-0.51938212652516
3	7	-0.2857142857143
3.5055774955602	6.7395375676091	-1.4094768265058
2.383927159844	7.4535505157878	-1.0620490471275
1	4	-0.2857142857143
1	4	0
1.2222221827385	4.2954008280594	0
0.82345085295407	4.2815033897546	0
5.6	-1.3	0
5.790373644402	-0.65252487431205	-0.38521635467031
[...]
CELL_DATA 5483
SCALARS Coverage double 1
LOOKUP_TABLE default
1.5054461400118 0.75455909775797 1.4160528023246 1.5664035333836 1.4482680057056 0.88798152618839 1.1501485711133 0.68227750013518 1.1256130387481 0.22101724711932 1.8657302225027 1.6722566954541 1.4921439738193 0.72795418748278 1.2477220806071 1.80135754465 1.0008415531 1.1560734282492 0.64944864422979 1.6592554787325 1.4243941939084 1.7094676541579 1.9012351028014 1.0887239466374 1.6091472387198 1.3940790700698 1.2389988214929 0.59052046782221 1.3753125345996 1.6667622984636 1.5936857449823 1.6942835115889 1.2105350248769 1.7943856378023 1.4926504964175 1.7770166472138 -0.36219812184817 1.8131859605198 0.35181320954106 1.7066437750813 0.62775398650553 1.3641232256343 1.3910654443842 1.4653241023922 1.3168083199635 0.88997476522003 1.8298161358295 1.1021714855792 0.96301146154627 0.57969350807096 0.69593306357781 1.2894382248411 1.3815021859566 1.5172722187967 1.7172713567687 0.97705492797812 1.499578152846 1.92779224492 0.8603455832101 1.8400817618716 1.5315604509038 0.70892740720744 1.3899467096398 1.5250892558932 0.81935185520792 1.5918098635282 1.1764316014054 0.65977152120461 1.7119802229574 1.589004383263 0.83837299926828 1.0895373697843 1.8054683750592 1.6929435025147 1.5385262253468 1.0371335021737 0.68360865940079 1.2897738095662 1.9269942858279 0.7069097152826 1.1557371976423 0.82387028521685 1.4841571837163 1.2043653932744 1.4939063759628 1.0084216966755 0.62329505299334 1.7835156509424 1.7774653792079 1.5411856786247 1.1992417165557 1.3721056756396 1.2887087005091 1.2175352323169 1.44797010743 1.6339399481768 1.5815112782237 0.98173276038054 1.6525805709322 1.6984961119238 1.2955387562741 1.8009159408982 0.99107648754767 1.5933484059838 1.1077827902426 1.5763081606804 0.38077424280964 1.1600194826444 1.8374137519224 1.892243750635 1.6909615683869 1.2885503115586 1.4904664301746 1.5565160884293 1.1613689569429 0.74499775129398 1.0157426129333 1.0496119172934 1.5618839900619 1.2052879610008 0.96658110496051 1.6274901807808 1.2635565371862 0.44620474096437 1.3269418752047 1.785228101603 1.0699037729162 1.7975148440225 1.3274820697926 1.5572780885729 1.5001063603993 -0.17146160311826 1.0934786327254 1.438783290203 0.82740089028299 1.5976896740337 -0.35468093202103 1.3683730690784 1.372001304613 1.8638393635736 0.59428354919947 0.19204679761243 1.8042221434082 1.694713040116 1.5305057879769 1.4128539807068 0.90677143079167 0.80036964051436 0.95505995480656 0.59120348216628 0.42765933658204 1.8708088442707 0.8215466955426 1.2036965688908 1.4143744392934 1.6261267799439 1.5061509996884 1.0520325809993 1.7362597636454 0.84111660179512 1.3835155776321 0.75819520111658 1.0193064887833 1.5936578761309 1.8730940125772 1.6581758796315 0.60963853159596 1.8544575844011 1.4298699607396 1.7812890005625 1.5774606582212 1.172473890804 1.3410930428244 1.8511559909005 -0.017046365532518 1.8604838640446 1.9179766931674 1.7728029391657 1.6850495299493 0.18603184257333 1.5579404154432 0.43399643017445 1.1225789203 -0.048683171256608 1.2211252451742 1.8841512079502 1.3960844354008 1.5767386628033 1.8247357501133 1.3345144620606 1.878030665527 1.3371871170766 0.73918035653979 1.6069536533728 1.2997350623857 1.0857565379781 1.6385683316171 1.5467393771445 1.4025935474574 1.8451835195261 0.66492456011087 1.9569693173118 1.4796066423298 1.512245510632 1.9495449163893 1.685415195612 1.6371392393923 1.4860174915 1.0933954660455 -0.40115868049862 1.374255604683 1.0753390113557 1.1824738541618 1.896822538167 1.8422220574828 1.8940194863308 1.8138448961524 1.6007410499384 0.86873907958877 0.86235858412627 1.3795262611824 1.750370838203 0.58145811337059 1.9021860168622 0.75466057224741 1.6882906843976 1.5944536421966 0.89059195243181 1.9036545885697 1.205011500496 0.91798210838063 0.88145650639985 -0.10506580361148 1.8705605077256 1.4979388537155 1.1808593307299 0.59231574181802 1.7527768776672 1.737861368879 1.5503699289902 1.7607202213388 0.71008516446857 1.5720066105233 0.97598523104106 1.5896411767811 1.8456410967296 1.3420704989356 1.5358876062979 0.58983755500942 1.6174670282153 0.69769128432145 1.6251459317198 0.49173101965854 0.22808309677479 0.062657656346736 0.46414137863241 0.88563732088539 1.8695985082006 1.3204378814023 1.8667594109389 1.1075168325692 1.1121595568614 1.5430933697575 1.3561470542481 1.9177740173447 1.8241789870627 1.4644578694789 1.8525225399776 1.556436422763 0.78176312561751 1.8450037332173 1.8895246234661 1.5428796691453 1.4325050624764 1.8492868348665 1.5374584327087 1.867610760905 1.5801604176872 1.618569023683 1.7277851076142 1.6691553333734 1.9684293934039 1.4512267625188 0.54441305228873 0.51845686877812 1.282445847487 0.98786711250944 1.5802618556737 1.7022743058761 1.301958375248 1.5201593999252 1.8367019678332 1.6779349774769 0.63530026969273 1.4531001847513 1.7017818966964 0.73413095540913 0.39146433842204 0.86157663946208 0.51428003004223 0.46056489489038 1.5915975603424 1.3861453247998 1.0609900289546 0.82691139029209 1.1333134822972 1.6493772403949 1.3105182435104 1.5424265749944 1.1120181474481 0.74653813759555 1.5940862538269 1.2980703956218 1.2501965804414 0.66878287001903 1.2093320860005 1.5289222423371 1.0996006007246 1.4566640733655 1.1889038083098 1.8321278582034 1.5960807350173 1.5478329157677 1.4378018435356 1.9243542773643 1.2793287975847 1.6935538134177 1.5752768731345 0.47751372477255 -0.60737435032717 1.6441140277255 1.2266684422155 0.77052490597449 1.5427691856194 1.5546912387863 1.8230750627338 1.8999670283402 1.006563753396 -0.55196685663703 0.8750269294474 1.3969429411946 1.2117733361258 -0.2252857727241 1.0906409564728 1.0578314316999 1.4201451340933 0.93533259610222 1.6023932330397 1.4214823581378 1.2620524271641 1.5360138039043 1.7291375288673 1.7291580232182 0.63385695254114 1.8868488135057 1.014440852897 0.16954155533211 1.3238483285629 1.7111840204139 0.5190998026097 1.3064288786359 1.3760036421748 0.75781904033678 1.3941688278698 1.7283051894704 1.4864579566391 0.90354362711334 1.7508858498325 1.6809798973536 1.2405517053461 1.3101239064776 0.9827517013793 1.4788109472982 0.30318356153068 0.61123720052499 1.153333023647 1.2965544810968 1.5275888560785 0.77405376539234 0.49168036559455 1.8087468331104 1.868641450165 1.8984231847802 1.6090517812376 1.3761666657043 1.8810819192672 1.849506355326 0.5908090002111 0.84535297542096 1.4985652877843 1.0021434266273 -0.21079668971092 1.6008607299423 1.4163243339121 1.3886233025025 1.5801318533845 1.6325443618692 1.4718469220265 1.4414905397216 1.5406716370084 1.0672742614475 0.8381992146966 1.0245229973936 1.7363223777169 1.975718919974 1.2501133462925 1.3696436717326 1.7091487595694 1.8433741864865 1.2721268554513 1.5717173509668 1.5214253369347 0.73336899980738 1.8532147726046 1.461812182671 1.4312923539824 0.94938063720518 1.5601214352511 1.8341186194165 -0.34050539300766 1.5986319501684 1.5100133250477 0.55549684860311 1.4215376235605 1.367481363657 1.0491063630191 0.21451497467366 0.18026034701148 1.6005882115184 0.32298141558238 1.6917376910632 1.3675784493472 1.7563018140626 0.91543676666796 1.7435005628402 1.453340140562 1.7468902410904 1.7726033767884 1.4100659647209 1.1998801123562 1.4290805750499 1.5632774252565 1.2901736841832 1.7724824885452 1.8465125605203 1.5508429476614 1.1443672271599 1.2809172673539 1.1956600634067 1.237375393491 0.95095101934541 0.69606175486222 1.4603890850061 1.5358609193304 1.830624832021 1.4921087159968 1.8951672246165 1.4557720809579 1.6949707742666 1.4794458590639 1.9030737840796 1.2952849093347 1.0117096926408 1.5798482127101 1.9719709281607 1.5524017289439 0.88114088575255 1.3489257517287 -0.21884198684109 1.8491916656305 0.50572928294872 1.8182288586645 1.4859874721698 0.26298438387513 1.5958439472488 1.3143634954614 1.0719375618773 1.4815462652467 1.7140751810806 1.8587289434985 1.4225493211085 1.4769660568735 1.8057938119911 1.6326335892497 1.3863003615308 0.71650733992594 1.5990493112516 1.5969564386734 1.525967573515 0.66781937181369 0.57578702794717 1.4198492428701 1.2352204427464 1.506125283139 0.84600111997499 1.8403816767065 1.608139608495 0.82236254823178 1.9631475837155 1.4185402178423 1.0646889724334 0.63094297223801 0.84167977232818 0.99881130353831 0.55975170581363 1.6982093383562 1.6225901034376 0.021666351959351 1.371916262844 1.1658623518717 1.4574115916228 1.3411007912795 1.5587538743303 1.5354608324529 1.8188427365807 1.0498950062019 1.6132366663762 0.78145806681365 1.0782368924159 1.3873391404757 1.6239129152965 1.0975081187655 1.7934640758463 1.6282962924628 1.3174460987557 1.6127338637533 1.4390023683367 1.6696191825408 1.5719914074267 1.6319173718886 1.6064264151216 0.42072734882209 1.3245395105432 1.4407437440587 1.8442906879096 0.77351234490556 1.7990375235418 0.96528713430847 0.91211674858247 1.3460051242949 1.7919517023675 0.89704885218618 -0.65775721864004 1.7067816939208 1.5633916144186 1.2657985247782 1.6992585583103 1.484189406057 0.66695245420737 0.83768250277872 1.8770493425041 0.94494105340539 1.5851057240641 0.84092498387616 0.70603682609081 1.365026731652 0.56837376443933 1.5596376400407 1.6286256640584 1.5248170379507 0.12225483563568 1.1342320313804 1.703962626626 1.2135912267422 1.553130423065 1.4332532666004 1.405379184687 1.4343328248042 1.0785943690774 1.5984611232873 1.5839184706781 1.027152509624 1.0737002240926 0.28156089300634 1.9725584418989 0.95219892483009 0.34264689258684 1.7364578073947 1.3190930435084 1.6087671814606 1.7087197350694 1.6831191012835 0.65340053074363 0.85736281381873 1.6888241905089 1.3872029975951 1.6478000950281 1.1374529346817 1.5130398075598 0.86135320194807 1.0539719152066 0.87947193078815 1.5146135212342 1.2253592415329 0.69441450454965 1.8969463466953 1.6645987092331 -0.54547667151961 0.1379894387968 0.89784323184933 1.7123992394712 1.8853454181986 1.5647453275929 1.851498301978 1.1971743289269 1.4663203874554 0.6233043359715 1.6801922599773 0.4032587500908 1.9775022297233 1.1272981846351 1.6139204082567 0.89803902273066 1.6207591388214 1.4753676469161 1.3494531904904 1.4304139004836 0.41546279134467 1.8340917851111 1.1436331164444 1.4894393893446 0.47131558073239 1.4870446735495 1.59295523882 0.96053518143476 1.3743325003583 0.9028573025438 1.6904395935319 1.1101319806519 1.4658930829319 1.3671469681462 1.2729107968678 1.868580647791 0.74588490936629 0.43272682688482 -0.51243120703732 1.7889205737257 1.1446818253 1.050619981407 0.76480230970885 1.832809985575 -0.18808275200889 1.6199462091785 1.6007086377712 1.1160691763608 1.0376704512174 1.7439542816875 1.89121370082 1.4733889739585 1.5461463649761 1.7950633919137 1.6730040858253 1.8633332286465 0.73288382623357 1.5853360463959 1.8437768108588 2.0410002195075 0.7431130615419 1.4406334627663 1.4021142783115 1.4695114925916 1.6171282012151 1.6133551069111 0.63861274862882 1.7137870580434 0.73763971890254 1.1435720885834 1.4666023641903 1.9356532064293 1.1827017257562 1.4107137453498 0.13569755392982 1.6822011660624 1.6632169588459 1.1699562437335 0.28302115589017 1.397305280552 0.73392787554811 1.6602174227685 1.2211820505263 1.4766762705526 -0.32272560392571 1.5000639484222 0.69085022992202 0.78210600156754 1.8518382071635 1.2724164424045 1.3659216312318 1.5312641421797 0.48067259882963 1.8720943160648 1.7932808388149 1.5245831568891 1.834545776804 0.67001771632373 1.6525834086554 1.7090314875292 1.5335706767912 1.0406924362434 1.792554197466 0.51254284706613 1.2744295016145 1.3932689315784 1.194669385326 0.80917555435343 1.770484851077 1.551420618805 1.3662131021353 1.3870963604425 0.72488054568919 1.3911838663141 -0.4104014757282 1.5981903097241 1.0108447513824 -0.24866183183316 0.27002280699252 1.5208418360052 1.763221917383 1.3469959637637 1.3836397856405 1.9101370370258 1.5424557458255 1.093035901427 1.6227393428399 0.93281324621498 1.2137704859809 1.4973282331968 0.97446586242013 0.36139770440961 1.6867715392786 1.4456430167414 1.85653933728 0.78126418138004 1.6856671798806 1.5400049832817 1.4781057097655 1.5699841503659 1.5613865841301 0.23034324275855 1.0287269855133 1.4081653970701 1.0512879619843 1.2370919123386 1.1427817498905 1.7530458787154 1.0807650644486 1.2601093188656 1.4632638612683 1.8180534356154 1.7546077991773 1.7457600765576 0.65461675631427 1.8710281145229 1.4686941368967 0.77654141465198 1.1901134783137 1.4971363783689 1.6369271154881 1.1270978642677 0.84162004386012 1.4441273918733 1.6230131061857 1.9335349849105 1.4319132537595 1.3070244992142 0.8190489247507 1.4149951769711 1.5902138742226 1.5864816468502 1.8076475644868 1.4383808745562 1.6133342185718 1.137195789351 1.5404365091427 1.6065156128776 0.8309358529819 1.9145336045793 1.4003633319905 0.58554036563968 1.5981994995554 0.91315851401843 1.537701635859 1.2369201969803 1.7329999125739 1.2017538230263 1.2164786105146 1.558720650379 1.1613771688466 1.671559306131 1.8587502137404 1.3204442674992 1.6546824700399 1.4317184349378 0.48800248078735 1.1423422064006 1.7935256851101 1.7460104221713 0.25792095212322 1.5998397615831 -0.54354247892779 1.4019219031848 1.736638013154 1.3028513159134 0.65590356309801 1.7634213950582 -0.67099740856939 1.7672493399998 1.3272522715788 1.4320546730488 0.74319169113661 1.1769776694284 1.389603016513 1.0642531098347 1.4892893604856 1.0791522558797 1.785997356648 0.77651049034778 1.42985338605 1.5077602394049 1.250412361133 1.3527628102744 1.5951012852885 1.5883924900458 1.4578448806651 1.1149619263588 0.62108540624442 0.75359187505734 0.65945098478846 1.5186937531311 1.578759829469 1.5919667656648 1.0678535676193 1.6715520174712 1.6231652172459 1.1624951506718 1.5903777293246 1.4241697600534 1.6117390310378 0.5283655221923 0.97055658394227 1.6088773308212 1.2654190762411 0.95083557824686 1.3428897348555 1.3607045683072 1.0587228802579 1.2735895081022 1.5452665327521 1.5255093242345 1.2124178984202 1.8557071092733 1.8155694458147 1.0928792901756 1.5433556898206 0.72792087059192 1.3378507171268 0.66764393945401 1.6370559193306 -0.19168239397785 0.74235331142895 1.5339820392605 -0.25030955124159 1.6970465255298 0.71687398340443 1.2862692876209 1.3289456651218 1.4384140716171 0.81603505103479 1.4119161421923 0.49297692614864 1.2517158189372 1.5671549226931 1.2630965162865 1.570275216312 1.5468180824698 0.97936176181486 0.83473316006861 0.52719833833658 0.78300439523618 0.6315278434125 1.8753550594906 0.45659677778282 0.92296430422493 1.5313906172131 1.2691053777576 1.6174027356027 1.7517737756406 1.6429242649627 1.6334348163765 1.249990657928 1.4026715177478 1.5164743982074 1.5358098832923 1.6958721365714 0.56536837572251 1.5859298592395 1.6014926377889 1.1766404413693 1.1665912082686 1.6655923785012 1.9452638141653 1.5881034447311 1.7291960227755 0.66746546733948 1.2384265296425 1.8034456872977 1.598463432637 1.3055214287587 1.7342545857134 1.0412157976818 1.377765108607 0.45029142543039 1.697202903614 1.2870464355006 0.70429862004428 1.4301956933581 1.5344953687362 1.4204936639944 -0.14163709360458 1.2753618457911 1.5838920449088 1.9002569534081 0.34437889500174 1.7779210895502 0.85652087902835 0.22467890783907 1.1871685559412 -0.44562947817738 1.725746692735 1.9462498273533 1.4366138496967 1.0090548019515 1.4966024450174 1.798208708907 0.42821252082624 1.5802676567954 1.4942968942224 0.22778375766087 1.4780847654109 1.3542027199987 1.6447012220833 0.95607349243156 0.53454794091131 1.4316458690188 0.64011541060908 1.2643219530979 1.8836662782122 1.3593799928474 1.488357522886 1.3583284297672 1.6368295918984 0.36544854946405 0.41039272453102 0.98396338242287 2.0278365783656 1.1390889761382 0.62490434324044 1.5159983255236 1.5826351415356 1.0614329752457 1.358111864641 1.2443091667739 1.380573457258 1.6028940604274 1.4757806165143 0.75599337337115 1.27791444183 1.3366376322454 1.636387431278 1.90432034993 0.61554464224153 0.98696136749415 0.49958124233017 1.5147358104307 1.3180291053647 0.81562561059938 0.99237563903585 1.6885668038984 0.51611104679729 1.1904401974433 1.0650044101498 1.2848684123998 1.7543988236257 1.2416103244329 1.1536219364763 1.7978039187915 1.8834627537646 1.5557948928297 1.7355132990422 1.633714167598 1.2492807948172 0.78604277567403 0.76010038263261 1.4711809260357 1.0744559044689 1.1865375791741 1.4966303424035 0.76550883614937 1.6636982057032 -0.12960333597593 1.7990158991774 1.6099150010015 1.3559154580352 0.56451061206139 0.68991131604523 1.779384433415 -0.017551743033358 1.1597828666305 1.3547257769205 0.60933060475132 1.150859124472 1.9141868472774 1.7860358835326 1.5306835091513 0.67982047572898 1.7265291774713 1.6709670492278 0.3631612821787 0.9326111256118 1.6496598121537 1.0172055215962 1.5418326808718 1.5376430133384 0.93600279203319 1.3717642365864 1.2485483087867 0.76232018497632 0.64690956468261 0.63779425497002 1.7413164498315 1.8582753779916 2.4690314185004 1.584129524262 0.91432207708867 1.6056819887638 1.458095381728 0.95726302772481 1.486328529396 1.7124198233895 0.52473045711684 1.7386650858156 0.89272314772734 1.7505235134329 1.5703551988112 0.7567340156543 1.215828556298 1.5166778788902 1.4014235617054 1.2407539109442 0.90779605570385 1.6543379689234 1.8197432861066 0.85136550660375 1.7102901558089 1.757747030201 0.50068902358919 1.9734478969378 1.4182763339004 1.1883111467898 1.1319329770563 1.105262795584 1.5950076416449 1.4693080568743 1.7153358281305 0.93742560166736 1.7653158957365 1.3745478970298 1.4303181630423 1.3295338719203 1.0474754417523 0.66847703153819 1.9030958273941 1.8776620696926 1.4296387552689 1.9267473288014 1.0668169400232 1.0364450112744 1.5238500159038 1.5028832712265 1.3419867677714 1.3595190886696 1.5080699561487 1.0489119411331 1.8415121023294 1.8606195318763 1.4054507828903 1.0583879992348 0.8012895047247 1.4103886090647 1.2547185740941 0.31924210890671 1.5622971731225 1.7170796471921 1.2831518479823 1.8273654735583 1.3396295427224 1.0875911153097 1.8926827526853 1.5489517054269 0.73583057265595 0.73475510208975 1.295195919495 1.8014581550682 1.1856902820275 1.0711322116059 1.6106348398503 1.3152654740741 1.7216118320503 1.6082156412337 1.2264252038643 1.3636486509706 1.792119971086 0.89960962420594 1.5750142991819 1.650679904576 1.8835782424089 1.4841033103117 1.2645657460797 1.7831954741462 1.7588064967801 1.8086547173694 1.5136438807224 1.4616807990197 1.503331338549 1.6022306217264 1.4856583016653 0.94171439347371 0.064207779745269 0.88890232801523 0.79431156867808 0.77541180711001 1.56005428532 1.2926365725833 1.7448116321082 1.2339488906226 1.5322289727301 1.2829673664105 0.60822756087429 1.7675745157878 1.5481028702382 1.6413636306331 -0.35115418019831 1.8498709788496 1.6191620964016 1.045626198847 1.868148074447 1.1918557651628 1.2038625817234 1.9171614939364 1.301925400668 0.62490712243973 1.4537426247995 1.2000892382592 1.1041823749737 1.7979644721128 0.95124276753568 1.6627535287701 1.3309398258865 1.3295949739178 1.0359903832325 1.7716154145114 0.25306311347565 0.69528073935871 -0.49619374078513 1.3936382091303 1.4497868829687 0.7956596812964 1.050352123716 1.5758642655889 1.7746375802588 1.4218327019154 1.622622397666 0.88749191228835 0.9148614062497 1.8541945375846 1.7472332568957 1.4996587460583 1.6059080115409 1.4850876686649 1.4230378097715 0.60204136908873 1.3866614695727 1.6788682173593 -0.13479901680645 1.3350250957623 1.8907095686601 1.4315368172515 1.4258080591785 1.2523588875642 0.89322727073405 0.46784680788015 1.5307947216198 0.81442286539016 1.361890171897 1.4122569902284 1.5572658645111 1.6365067261224 1.7734135926153 1.7910764981464 0.34218052749581 1.4753267243788 1.118114678986 0.43282671466725 1.8212709389365 -0.46008779144556 0.57832730435463 1.3045347152107 1.6616521642808 1.0055858930477 1.49695512884 0.57200927485461 1.4239275959762 1.0383742566289 1.3016113558306 0.97508430381565 1.0377397082713 1.9062704146448 1.479722524752 0.73133964170388 -0.049756073369942 1.0625466627895 1.3324642427858 1.5558766035394 1.4555085792709 0.96772695101343 1.8499465982049 1.3481038896459 1.5075968122652 1.4475681839377 0.75865795325677 1.5746271792568 1.5387705287652 1.9671073474092 1.4419161062841 1