# vtk DataFile Version 3.0
d-3__ created by libgimli-v1.5.0-1-g5991b6ac
ASCII
DATASET UNSTRUCTURED_GRID
POINTS 1483 double
3.3802423101098	12.435481574566	-0.57001420684378
3	12	-0.2857142857143
3.4959596309848	11.998298039034	0
3.2490070092203	12.168560129388	0
6.0395510135596	13.367156253372	-1.2757999763971
6.5930002103947	12.023472734859	-1.2922192071349
5.4998599382803	12.552571297657	-0.59337769664261
5.29662096318	11.932351047571	-1.5392209346082
5.6153020589615	9.1440579133635	-1.0774777831171
5.7237069713611	8.5589744845549	-0.30827017969781
5	9	-0.2857142857143
5.3151026533923	8.4249591108801	-0.38240156963578
2.3178923476779	4.1926464382665	0
2.5373292327812	4.4716333182052	-0.48281884804687
2.3342974478463	4.0018571812202	-0.30572640106363
1.9994701911036	4.4258543307655	0
4.8968211033092	12.507755029533	0
5	12	-0.2857142857143
5.2932790228536	12.494788035524	0
0	0	-0.2857142857143
0.54768630893449	0.55020446432687	-0.60775225926193
-0.16846798780902	-0.24002860812406	-0.65332445545953
-0.28063481777066	0.41453578455018	-0.44890469943706
7.7	3.575	0
7.3102059000399	3.7470939102263	0
7.7	3.6732286664853	-0.53772532608145
7.3176226410905	3.2857280588852	0
-0.7	-0.10798167686939	-0.47517111104905
-0.7	-0.57707899562378	-1.1376990549501
-0.7	-0.61986630133594	-0.43486724047509
6.3962361866998	10.611290418241	-1.3182185489848
6.565939673393	9.5694509864085	-0.57379796778735
7.1295911592009	10.496363016677	-0.48219980545192
6.3839624611364	10.341052129245	-0.35036617584397
7.7	14.3	-2.5
6.7623683783591	12.987112326146	-2.233077027779
7.7	13.059020885286	-3.3539705522597
7.7	13.327367479896	-2.129915020979
1	6	0
1	6	-0.2857142857143
0.93236760237426	6.49128333619	0
1.3454573625665	6.353105459937	0
2	5	-0.2857142857143
2.1684298754346	4.7403793023811	0
3.0226729813355	8.4836106439452	0
2.5164096947204	8.910651700233	-0.41109082170818
3.4071201441719	8.4167381876838	-0.59109415332551
2.5374808587914	8.1383747261781	-0.35604109466584
6.2778911301719	14.3	-0.61136458754231
6.2225356773765	13.691717475418	0
6.5208076177088	13.495118289851	-0.49928801204061
6.7358646795693	14.3	-0.39005656748015
5.7965188279432	13.281940723964	0
5.5320359851605	12.925291312368	0
5.353113789845	13.264183036004	0
5.5919457801018	13.101154188917	-0.33537516396337
7	10	-0.2857142857143
7	10	0
6.5010306427949	10.010760669106	0
6.8196744207924	9.5136576917357	0
7.7	1.1375	0
7.7	1.6430719769933	-0.42557297445049
7.1939383721229	1.4724531054162	0
7.7	1.625	0
6.3572581294301	1.4772201134971	-0.96507376287322
6.5574763981385	0.84898833643366	-0.48332647821142
6.7774291048203	1.7003141153393	-0.4123635555875
6.1433933962903	1.4220674799247	-0.28622251631329
-0.7	9.1984657118068	-1.9278839451739
0.33291529395702	8.3305676904572	-1.2970017952003
-0.7	8.1442617177323	-1.0898260028896
-0.7	7.644268062563	-2.0766032868031
4.508194357046	8.6258793740749	-0.60770874662543
5.0095189690676	8.5009469809039	0
4.7609249278557	8.7686419230913	0
6.2306672701993	2.67753718	0
6.6360398560532	2.4670661479797	-0.44686919005428
6.4910302172834	2.4939022421641	0
6.1550873755842	2.4572757142813	-0.33684154297057
1	1	0
1	1	-0.2857142857143
1.4901571161019	0.99574153349402	0
1.1736530561382	0.72346383359363	0
2	4	-0.2857142857143
2	4	0
1.6440539242474	4.1532454240512	0
7.7	6.9501255673919	-0.74418826283982
7	7	-0.2857142857143
6.7521552376889	6.497772044976	-0.66059363300197
7.7	6.3887218416049	-0.46884913673037
5.9482896260331	7.5800048202495	0
6	8	-0.2857142857143
6.3095291646476	7.6896230263426	0
6.1432247512519	7.3579252770212	-0.41388970597853
3.501272057481	12.437082442362	0
3.3297831413816	12.805427976196	0
3.6823393063421	12.851671876304	0
1.3671388209093	10.633374397873	-0.4152980605108
0.95248763025238	9.835503527633	-1.7808732395437
2.3518021577517	10.495200039554	-0.50930668321109
1.5373497846005	10.021005779616	-0.41781002197689
6.2054585007625	14.3	-1.3884356875417
6.9442913034148	14.3	-0.89278753613404
1	8	-0.2857142857143
0.54167473049383	7.7707286368021	-0.37916050195481
0.44975345341211	8.3808810318019	-0.31136669048163
1.022076618805	8.4121844676845	-0.45670843222423
0.89173681858685	4.6122796653579	0
1	5	-0.2857142857143
1.2386083631299	4.6841794176855	0
1.3923592539172	4.7130963353432	-0.25978315417498
6.4242299347383	5.6840176993625	-0.35514079575845
6	5	-0.2857142857143
6.3424541740313	5.2754910113697	0
6.0447933133998	5.5049876953384	0
5	2	0
5	2	-0.2857142857143
5.5190673049038	1.9208326821789	0
5.2306444928855	1.6547875838902	0
5	13	-0.2857142857143
5.257359886178	13.540476325965	-0.63012071696907
0	6	0
0	6	-0.2857142857143
0.066757795936057	6.5008369551487	0
0.29243888553297	6.1743316976873	0
7	9	-0.2857142857143
6.5033796411008	8.9981073418213	0
6.5607922823332	8.4440251373986	-0.63122800754088
6.811726958696	8.7028726276344	0
7	5	0
7	5	-0.2857142857143
6.4986646723997	4.9192017057136	0
6.7141996182955	5.3303468264748	0
7.7	9.5988491781319	-7.4736716195817
3.1507199964473	10.394874003632	-10
4.8663216648816	7.3792654266676	-10
5.1015502438684	11.553440122249	-6.405163284031
7	7	0
6.9589015254993	7.4884372736447	0
6.761634669635	7.2408783569561	0
6.0574437090791	0.20878539066113	-1.8779478182653
4.9838025543493	-1.3	-2.1179854334408
6.0308685444023	-1.3	-3.5425074203685
6.440522236286	-1.3	-2.0103523001383
3	2	0
3	2	-0.2857142857143
3.0105846506	1.4855923993349	0
2.6480485575569	1.6700894103009	0
5.0527203000088	13.535479310798	-1.5373151531841
5.0246691847863	14.3	-1.036131499603
4.1300067609037	14.3	-1.2024507502556
4.4744197407865	13.547407617085	-0.63586628370479
2.5813517996865	9.6286485974984	-1.0236151505326
2.2955236368793	9.5881134365907	-0.29154811067367
3	10	-0.2857142857143
6.4248505083522	12.522044346884	-0.42559946143008
6.465073985677	12.51782996062	0
6.1644652963082	12.36965297069	0
6.3832046574853	12.135664356038	0
2.9908655166747	12.498069465114	0
1.984703560175	7.5906357794687	-0.50777967523709
1.0508409188237	7.354634772545	-0.95680796450018
1.4515039911109	6.5829264157992	-0.56173008002516
1.3866216751759	7.5118935788728	-0.35488362790971
2.45	14.3	0
2.2168273415577	13.627179222019	0
2.4554693735383	13.497784276817	-0.39727655195048
3.032551925238	13.762466584345	0
6	11	-0.2857142857143
6	11	0
6.4843452951013	10.966514281357	0
6.2440599782187	11.234710090977	0
5.5	-0.5576923076923	0
5.247952850371	-0.29481663567353	0
5.5452342683804	-0.096294524539033	-0.49623355575102
5.1016398375367	-0.61489919294387	-0.38960315167385
2.3232496140345	4.0110297188843	-1.3835068702753
1.6586320571652	5.8268322896535	-1.5213554090482
0.71002746520551	3.976198472286	-1.505315421377
1.3296414347056	4.9089994064226	-0.82629172929831
5.6	14.3	0
4.6510156691765	14.3	-0.56274723813486
-0.090060726359069	5.5363033123106	-0.44581840212762
0	5	-0.2857142857143
-0.38456492153953	5.1805342841446	0
-0.7	5.0205501441189	-0.32507149572551
3	13	-0.2857142857143
5.1848675157348	3.2965660830064	0
5.4046165570399	2.9501485228537	-0.43988698776777
5.486289771732	3.4981838484395	0
5.4682750147717	3.0660382780841	0
0	8	0
0	8	-0.2857142857143
0.5178658825659	8.020802151125	0
0.25864598874121	7.6639427314904	0
6.7098208972434	7.2950601162224	-1.3269022195366
7.7	7.949747446039	-0.91833665053736
7.1577047253729	7.4844276204668	-0.64272934527953
4.5892004575887	3.5369189576522	-0.55981654583505
4.4420188491858	3.4660037233365	0
4.711527897636	3.7375259681419	0
4.3494632088922	3.8023533541114	0
4	6	-0.2857142857143
4	6	0
3.9913416390327	5.4988534517732	0
4.5093195747582	5.724109532591	0
1.4	14.3	0
1.5	13.55769230769	0
0.89284349994875	13.714781914708	0
1.2292962491126	13.670420041977	-0.37788942865261
4	9	-0.2857142857143
4	9	0
4.5502440226935	9.051086551406	0
4.2963154051231	9.3907765114078	0
4.5321110402369	7.5028925212181	-0.60552533206341
3.5085861108931	7.3893844432383	-0.64873189634878
4.0050480592533	7.4977657988521	0
4	8	-0.2857142857143
5.8961095330637	-1.3	-1.0125722125019
4.8982045728458	-1.3	-0.82217786726149
5.2296982103621	-0.31621891710017	-1.0679345669244
4.9010483556055	1.478997710586	0
4.5631533182214	1.9074133665015	-0.41231302454656
5.0320642355688	1.4518180616801	-0.36509190625555
3.5357179442866	0.46434418042464	-0.60031716899974
3.9407498163335	-0.4411178910574	-1.1087857494349
3.2826824657074	-0.47747544834602	-0.50866572047373
2.802260468126	-0.22902113419037	-1.4542342115515
1	13	0
1	13	-0.2857142857143
1.1191337005982	13.329221525091	0
1.4884720276527	13.02962190928	0
-0.21681247778723	8.5792000107362	0
-0.35118339610893	9.0917088673227	0
-0.7	9.0968147603684	-0.35256881313688
-0.7	8.9375	0
0.51662331659314	-0.40156299802931	-0.67799391089861
0.13474046208011	-1.3	-0.85683826964205
-0.16941603187845	-0.57512411281067	-1.4019543009948
6	13	-0.2857142857143
6	13	0
5.8068477026831	12.499749736815	0
6.1890713266052	12.67695534294	0
2.5984255358496	5.4578875982232	-0.67264342113488
2.2172109403706	5.4325217687574	0
2.4824672258873	4.9705265694472	0
2.6598112065826	5.3330483814808	0
-0.7	0.5146532048839	-0.51418317722913
-0.7	1.0492756199945	-0.88024243711367
-0.37698118088761	0.89350663208132	-0.33360419980628
-0.25096134668857	0.95145340086689	-0.90448711690516
6	2	-0.2857142857143
5.4002158317804	1.7678073061348	-0.50898482673054
5.8183999242367	2.5164331321023	-1.0840550371572
-0.13917028340788	5.5182991349521	0
0.31578338747353	5.7567158690792	0
6	12	0
6	12	-0.2857142857143
5.513035862904	11.994753403328	0
1.5285536174902	4.2362319729344	-0.43851980589517
0.57100063419133	12.499134596467	-0.56842257570583
1.2565986295401	13.42724014175	-1.149557674079
1.4486633887383	12.69302170761	-0.31714242590465
6.65	-1.3	0
6.903739311401	-1.3	-1.0953527719967
6.3980205255852	-0.38130956989248	-0.5855507841991
7.2175457166608	-0.5710098692386	-0.51938212652516
3	7	-0.2857142857143
3.5055774955602	6.7395375676091	-1.4094768265058
2.383927159844	7.4535505157878	-1.0620490471275
1	4	-0.2857142857143
1	4	0
1.2222221827385	4.2954008280594	0
0.82345085295407	4.2815033897546	0
5.6	-1.3	0
5.790373644402	-0.65252487431205	-0.38521635467031
[...]
CELL_DATA 5483
SCALARS Coverage double 1
LOOKUP_TABLE default
1.5030694196684 0.74726943605891 1.4064258332755 1.570070737845 1.4449191344673 0.8774270873295 1.1375304357903 0.66861710919911 1.1120086681667 0.21444250777989 1.8410023998963 1.6597933477687 1.4958818675477 0.7264884995336 1.2488812300423 1.790124105292 0.97832741482727 1.1441351305303 0.62045476911666 1.6510216714363 1.4368155469852 1.7074729921106 1.8950312753753 1.070053674564 1.5963468073233 1.3925787671172 1.2417318593318 0.58720990342547 1.3463701637853 1.6510902225824 1.5698597446117 1.752703876795 1.2094708009901 1.7821911518375 1.4817502951204 1.7738064419738 -0.36832779101447 1.8046187373498 0.27310265974493 1.7512309155278 0.62413125378442 1.3705885090355 1.3896113293319 1.4620444055252 1.2868113111734 0.89182834363038 1.822531132483 1.0359816722959 0.9442371570193 0.57122494283765 0.69261645461149 1.2799523946691 1.3809624332049 1.5282709586458 1.4514800929013 0.95900550575573 1.5005599340786 1.8674193112166 0.86109174117338 1.8379673346958 1.5225191312146 0.63280822403035 1.4256647179288 1.5226322405812 0.72940360234739 1.58345715459 1.1493517843119 0.6394659199854 1.7140302886235 1.5706524875973 0.82999560057975 1.0912641090404 1.7816528300046 1.6916114031735 1.5364054567224 1.0357668117002 0.62493426285269 1.2714990365494 1.9311760023435 0.64542237653591 1.1564927757276 0.80288881446949 1.5066928330191 1.2184963223954 1.4991656037758 0.99935014993437 0.6093039111726 1.8458058724777 1.7698534295104 1.5528572552273 1.1820289014687 1.2655879308971 1.2763802964491 1.2164008524579 1.4595304685099 1.6246975719474 1.5841981174201 0.97723557409095 1.6433415390126 1.6749635384219 1.2951329577066 1.8033735124499 0.96356180310287 1.5994663860635 1.1191675256651 1.5438184946365 0.31906495197631 1.1354030639546 1.8116378577171 1.8826282448224 1.7013185577978 1.289771449802 1.4796482382179 1.4758389629404 1.161632497382 0.74500984500029 0.94898937684366 1.0183747215159 1.5627496025446 1.2014678513953 0.9579354905718 1.6174249763391 1.2502052934196 0.43025699650207 1.2661220863356 1.7895060650437 1.0580069841167 1.8080738018611 1.3288154328056 1.5413012206337 1.5016168335714 -0.19748616365617 1.0687746667808 1.4212887780229 0.81795078163404 1.590553268065 -0.39640515932917 1.352982451563 1.3459670895038 1.8646186068294 0.56151427753974 0.17260081652006 1.7915240961362 1.6842688699296 1.5105117811416 1.4208173079918 0.87490634077292 0.70368125557297 0.93607565856267 0.59385208606346 0.37354945768548 1.8630607342898 0.82000634679399 1.2065505151872 1.3980545056076 1.6359764808724 1.4680000695767 1.0527841672249 1.7354454422294 0.78366784197739 1.4298432102444 0.75329714252526 0.95815889544958 1.5892368697653 1.8708193865181 1.6486001329098 0.60012648455785 1.8136560706379 1.4347878668991 1.8022870728837 1.5887695407645 1.1744577041597 1.2876525407873 1.8384235343366 -0.075098530540019 1.8716326275397 1.9208036312044 1.7659160008625 1.689049492444 0.17825293051023 1.5526801749022 0.41347492908458 1.119676723377 -0.069251675975248 1.2115373115578 1.8687298962414 1.4004816469841 1.5678316700335 1.8289291050977 1.3328542672264 1.8669210403489 1.3319305513831 0.73949534931032 1.6044757972915 1.2694969302559 1.0780932463353 1.6417654071009 1.5422303724673 1.4004089355988 1.8551818236018 0.55602616459566 1.9268607399718 1.4772930954012 1.5040329005845 1.9290081390023 1.666432477368 1.7041495823483 1.4756742681603 1.0792889454306 -0.41939753854538 1.3770610007639 1.0741854203977 1.1773262279364 1.8910272039236 1.8619733295805 1.8749237914091 1.8453277376586 1.6027769256389 0.8676090952415 0.85995019325965 1.373985328813 1.736085726531 0.56309920357549 1.887964418064 0.73030319214718 1.6784427505799 1.5612470605237 0.8573214100704 1.924218507658 1.1587590656764 0.91981159393763 0.88168991817169 -0.12473397533704 1.8643440569687 1.4537238577658 1.1691022281478 0.5716734845102 1.7530913916703 1.7066808759364 1.5429960555923 1.7653004555923 0.70548147201863 1.5866360035021 0.97080103392697 1.5813757156121 1.8436443999376 1.3277987562161 1.5333026208459 0.54592827182129 1.6186539251217 0.69017435118639 1.6712898156948 0.47324426544205 0.2207703704026 0.033602378474451 0.45739473099925 0.88406311196954 1.8662259010071 1.3135168439373 1.8727820661739 1.0571310535692 1.0744326967703 1.539019646518 1.3513758969874 1.8037645271439 1.8407342393697 1.4594545397218 1.8609150682942 1.5433547004283 0.74408769134976 1.8604582363109 1.8965189303396 1.5566417231604 1.4320473889449 1.8571479363315 1.5572398921043 1.8601671398621 1.5882027341256 1.5904512625634 1.7268800261861 1.6544878302574 1.9480173983551 1.4452391669352 0.54121095241462 0.51047714352718 1.276979591571 0.9708920802337 1.5775301868337 1.7509050192259 1.3036590844401 1.5340255968184 1.8458604010796 1.7234800367702 0.57982501365994 1.471922526838 1.7027372062998 0.72624859197037 0.30587261633527 0.84808640929553 0.5092669798095 0.45642887725902 1.5741820510103 1.4054552376315 1.0176677130544 0.82248104371902 1.1199276323606 1.6256333609138 1.3055546827725 1.5365142292643 1.1109368773777 0.74495708246672 1.5901184057331 1.2761229088953 1.2548217524436 0.6450621674582 1.1691170555694 1.5248384416201 1.0824610227615 1.4481374387019 1.1674931516843 1.8255491311233 1.5575602758577 1.5402448869033 1.422868243271 1.9164562470758 1.2685556400286 1.6962164746207 1.5574868543431 0.47276727690998 -0.60606500533028 1.6348660773575 1.2068964396702 0.7396232226366 1.5406957148586 1.4965242392119 1.8092304244231 1.8853742264611 0.96535129973741 -0.56252675207758 0.85681956349117 1.4150655003142 1.2253218193286 -0.22709345352783 1.0519133077008 1.0548784786371 1.4175456403823 0.89149042455817 1.5690606846508 1.3740116263045 1.2507449711877 1.5333961929862 1.7174097773623 1.7763585857097 0.60943943397551 1.8828215555333 1.0096921000969 0.13299565173205 1.3144425092283 1.7149199129413 0.50137575994199 1.306859470983 1.3744023857215 0.72481935820823 1.3822725546781 1.7422330089604 1.4782641952522 0.88520570520476 1.7591948466097 1.6779475534951 1.2588640917331 1.3158372866089 0.97740207932224 1.503287079098 0.28283948705023 0.58843331812088 1.1524287641303 1.2963199541386 1.5245630936833 0.76888313753733 0.37752309800472 1.8264363575839 1.8878453004474 1.9021699536642 1.6063678969112 1.3604930766446 1.8764662739991 1.8282523275745 0.58692145055368 0.83727835247034 1.5232811148134 0.99787721061055 -0.21450148100775 1.5961401142848 1.4174764404976 1.3913424485005 1.5830140602308 1.6220238835284 1.4719064380363 1.4648511549649 1.5632222690823 1.0826529962806 0.83642668515831 0.88188616771656 1.7508673699544 1.9380269855774 1.2453367269332 1.3574190344708 1.7177638102051 1.8532583678686 1.2741351492794 1.5010532755863 1.5167465057384 0.66808723252866 1.8327840046657 1.4231163452697 1.4490429607359 0.9606198028051 1.5632259924258 1.8363475041788 -0.36830607740943 1.5749281749684 1.5160357221432 0.53365947359266 1.4030192782677 1.36142768303 1.05008428434 0.20836733101708 0.14766992126738 1.599412115134 0.3203108954221 1.6832401749003 1.3053014163063 1.8110602957127 0.89447303235593 1.7452453728526 1.4436303394396 1.7445000685426 1.8105252452807 1.4066570422128 1.1972708906206 1.4291571492349 1.5709874483241 1.2789332757002 1.7552204637708 1.839155658349 1.5591494155273 1.1377665787997 1.2764826489721 1.1974346357276 1.2414215871114 0.92923622679766 0.69702263680155 1.4549277451562 1.5282621893504 1.7955853281282 1.4789037071078 1.8870994971372 1.4075972946013 1.6975573372164 1.4925296421778 1.8940198188491 1.2650248734844 0.99601048714146 1.6000588961955 1.9321829898982 1.5136906964238 0.8732292365682 1.3471364588995 -0.23801847974406 1.8453919293682 0.4670651335872 1.8171125357703 1.4807337749963 0.24311687198515 1.5754027396935 1.3147661788521 1.0700478870503 1.4997552078087 1.7196880077679 1.8542269274302 1.4293825132191 1.4704949676938 1.8060582166397 1.6340027955937 1.3758024866141 0.7136243883322 1.5941673974679 1.5727619607285 1.5304192390637 0.66601663676294 0.47643468384564 1.4335987988958 1.2370731253587 1.5074616752308 0.8375437631264 1.8491741685559 1.6067832143164 0.82118185836344 1.9354861773456 1.4232702973545 1.054135466018 0.63173982862489 0.83052508278228 0.98332405243709 0.53333702723554 1.6975502909708 1.6106305390953 -0.010498422091086 1.3439980654319 1.1602782082608 1.4516169613424 1.3447429109284 1.5398514984542 1.5172876919385 1.8074748950538 1.0419993047395 1.6017613191914 0.76031047316937 1.075008428042 1.3880584715936 1.6012309585446 1.0965664716556 1.785079161898 1.6250788460345 1.3187900398096 1.6003021292286 1.4352995221764 1.6692858659768 1.567373038217 1.6206917955123 1.5849935506905 0.41531028697421 1.3146174186308 1.4401691993938 1.8261059029057 0.77332457318788 1.799432481937 0.81897141933389 0.89571224604026 1.3379861326747 1.7960927774803 0.87536697560104 -0.68826202737044 1.4214045456348 1.5422253009492 1.2728752377043 1.7002338010753 1.4728429880714 0.66371887834061 0.82165722274905 1.8461619543415 0.9333527233369 1.5893270798701 0.83759619026385 0.62771696298575 1.3597816253182 0.56711000402583 1.5682704638601 1.6085960701874 1.5298648357984 0.054691998944723 1.11933706906 1.6988909410795 1.2002822545362 1.5412108653176 1.4302981769166 1.3877653512211 1.4326576354541 1.0661816964499 1.5938662421591 1.5622773147747 1.0199808879009 1.0830175728169 0.25501035594595 1.9139052276113 0.92000478908878 0.33612352784972 1.7416667024416 1.3288699110005 1.6243909186086 1.7017902661196 1.6782063790774 0.64983909843164 0.8515910359554 1.5945608939866 1.3875183793303 1.6572414403508 1.1364559692225 1.4984590263731 0.78142707966741 1.0549962564291 0.86503333961269 1.5110035681302 1.2370955408006 0.67583048972648 1.8775945923561 1.6602671879007 -0.54752918811974 0.13254637366223 0.89195221772147 1.6531897391786 1.7536685257876 1.5540443848694 1.8439937318208 1.1014026901864 1.4524740707373 0.61478619150481 1.6828603390205 0.3739525147011 1.8947060409496 1.1092552817234 1.5677870311013 0.89968847773221 1.6105836764719 1.5002112267333 1.3538993154291 1.4335729184354 0.35400929898115 1.8579010823085 1.1414646312014 1.498590175366 0.45477849076329 1.471662333858 1.5814138418807 0.95317768238626 1.3603179329754 0.88068399434094 1.6963904362262 1.0974443657859 1.4731857896485 1.3781970283565 1.2668386078721 1.868213738152 0.69229973774836 0.41247424039151 -0.52180806503475 1.7825876524105 1.1240354799394 1.05106724369 0.75703058725504 1.8227589275066 -0.20150185291189 1.622170842434 1.5830320908327 1.0980147749121 1.0348013762761 1.7883599837408 1.8776559308445 1.4661868285664 1.5306472346871 1.7939243372764 1.6862645462179 1.8567976194598 0.73106979576182 1.443902026435 1.8545578085978 2.0537893238126 0.69940948113828 1.4556064318461 1.3680984713928 1.4672696520855 1.5812008843947 1.607430543404 0.6228046188662 1.7424489092929 0.70283532488785 1.1336254122905 1.4726080770946 1.9293262944892 1.1258772701805 1.413359594061 0.1151838439192 1.6829744483765 1.6652449184388 1.1499814404876 0.27651992183957 1.396868873117 0.7143474446932 1.6620202978256 1.1814196697195 1.5197011989578 -0.34348074299131 1.4933774496377 0.67119324989667 0.76928776448006 1.8572866923001 1.271530115914 1.3197111182702 1.5367875333332 0.46278792910104 1.870802318775 1.8443170332172 1.5188896639951 1.8309512348055 0.66022655741628 1.4674968477066 1.3864038937175 1.5268586382574 1.0371575777031 1.7971273724498 0.50687153392667 1.2661606595224 1.3860070290397 1.1809911551966 0.80305528757165 1.7790765703016 1.5620946894227 1.3876781515409 1.3729639375787 0.70597585786647 1.3911652762602 -0.40978430176872 1.5877212084851 1.0072400859394 -0.27641896661618 0.25736321364974 1.542800306875 1.7431113898311 1.1637368263382 1.3791064662636 1.8684088493217 1.5345876922574 1.0756452035976 1.6254167916361 0.91679494249028 1.1910516960041 1.4720469000634 0.97048453696001 0.34880575708771 1.4230176382553 1.4481943993544 1.859294419801 0.75835375660099 1.6674779062168 1.5358257458611 1.4570352290499 1.5689551345912 1.5916286214291 0.19212384633418 0.99677948077792 1.4187559484614 1.0350207161541 1.2376222160305 1.1311703419398 1.7627067618806 1.0535404654136 1.248225792773 1.4615268167666 1.7991200185658 1.7385027683525 1.7521866077639 0.63750942274731 1.868579994771 1.4745354886329 0.75543381178464 1.1859129640557 1.4968921748342 1.6166075049199 1.1122550867816 0.83687499197289 1.4442895676004 1.5727398481976 1.925302941958 1.4272419615614 1.3016906447877 0.79749560010121 1.4074699401554 1.5661991314602 1.5843577957814 1.8215409704014 1.4123232518276 1.5498117664664 1.1290711858083 1.5443951777085 1.5980336636756 0.82534536843351 1.9079872170303 1.3928734276167 0.56980436878902 1.5988991204803 0.87956677378123 1.5247894970928 1.2207568457475 1.7350831745925 1.2013179181011 1.2087228680748 1.5641953417515 1.1468138562507 1.6580640974023 1.8587393265094 1.3209751894572 1.6468391854533 1.4583128592102 0.48043618083723 1.0327115215957 1.7914494595454 1.7306977703244 0.14892836847609 1.5923250257783 -0.55083911628438 1.3949589817552 1.7282808587424 1.2996598115981 0.61255988721817 1.7723750604994 -0.704813375906 1.7382362591372 1.323906198612 1.4361088107077 0.73209922583838 1.1748074809662 1.3879932645158 1.0429758929787 1.4648536760744 1.0774481002166 1.7361271962249 0.77464578104195 1.4226051701196 1.5060489821185 1.2168127962494 1.3415639440384 1.5859752251957 1.5682322148789 1.4662324202556 1.0993705743238 0.62096510758869 0.75403667161349 0.63045874597171 1.5319503866201 1.5738767011208 1.5885057857448 1.0687639125797 1.6754695389005 1.5504975958613 1.102644806243 1.5906009989361 1.442203373088 1.6021618499732 0.50876987416499 0.96145193995182 1.6049529485986 1.2681503988102 0.91338224322658 1.3083860626019 1.3498584904666 1.0600993234065 1.2758850165877 1.5357685363785 1.5066443214538 1.2020919799301 1.866661932459 1.8275732279175 1.0856969018481 1.3883022030712 0.72446217927334 1.3388760293466 0.66935111642293 1.6456131541416 -0.20249921718366 0.67835324083033 1.5355027041433 -0.270557301704 1.6678997805154 0.70662317542491 1.286289979726 1.313840904787 1.432612564007 0.81774778892923 1.4071073545932 0.47450804810648 1.2477926468865 1.5720918249325 1.269538131006 1.5484254457452 1.5124948014482 0.97136875741475 0.80357311034569 0.4348157953821 0.78149450427763 0.54654608967606 1.8396419924242 0.45086739887139 0.92169485179319 1.5262071946062 1.2952142190934 1.5427636203402 1.7525156872645 1.5638686492218 1.6010842080885 1.2367097072924 1.3927058927821 1.5178523683247 1.5396412698613 1.6890399791407 0.55408596114255 1.5798122892406 1.5693551655365 1.1748197183244 1.1487805964602 1.6571201830462 1.9078299115564 1.6003125768621 1.7211009653826 0.66520714051269 1.2378773514036 1.810252390954 1.6187734713338 1.2871536551926 1.6862924022227 1.0231460525898 1.374661153133 0.4134068678629 1.7342428658105 1.3020752558862 0.68139057958706 1.4650880672059 1.5225727752262 1.4139748539336 -0.15490935812987 1.2790050955563 1.5796542412128 1.8702441793351 0.32476556719672 1.7729266107814 0.81313452816108 0.21751159629519 1.2100035908431 -0.45751039208274 1.7087841703052 1.9167817348486 1.4271926183836 1.002667353587 1.5114602075454 1.7315882189437 0.39338813474081 1.5838677905688 1.4893133944001 0.223035637098 1.4466805218596 1.3490302997304 1.64021548623 0.95344435834441 0.53012412603209 1.4344415067558 0.617120453849 1.260343725386 1.8745953245956 1.3584883324077 1.4959219075696 1.3236348166046 1.6176637028638 0.35217433778212 0.39769812808676 0.97749714192427 2.0092554170485 1.1198312532444 0.62213755189937 1.5296206992801 1.5760693815531 1.0537843976373 1.3604091625021 1.2423485110939 1.3453487439453 1.5745389551235 1.4805381107797 0.74228214453714 1.2901269431643 1.3369420990009 1.6170129661239 1.8858366371129 0.60153038106556 0.88111781977702 0.47895029124123 1.5170890921083 1.319234321818 0.79846194108591 0.98683237614226 1.7678318528122 0.49949547352051 1.1876182955625 1.0581325886242 1.285386304059 1.7436276078002 1.2401924195354 1.1501740586693 1.7921909263455 1.8847484988368 1.5369728488378 1.7398301591564 1.6113919187104 1.2360137136085 0.78903926448939 0.75005446161432 1.4870454413749 1.0649789605808 1.1872231027474 1.4905352734673 0.76214589024555 1.6496420640627 -0.14890257588595 1.8055018541991 1.6087216718571 1.3590815193449 0.53697787963515 0.6093076280021 1.7615840240156 -0.025403509481314 1.1492561999973 1.3121939748757 0.60690203770069 1.155489109809 1.85633319391 1.8076446447213 1.5057696462473 0.66844862700556 1.7139402142174 1.7383180311767 0.32098885190207 0.91336446738145 1.6391569415508 1.0099006786274 1.5504291432268 1.5458221452563 0.93813818631608 1.3751963322242 1.2341309167091 0.73712168070399 0.64515999638357 0.62271253995232 1.7725512760907 1.8475470824538 2.4787129270104 1.5626987722082 0.88170238564932 1.4264851376842 1.4889458854484 0.93351702362011 1.5096041705138 1.7139174158677 0.50099349773311 1.7452660148312 0.86684555391109 1.7411148865312 1.5370603328532 0.7554009984773 1.1160072313113 1.5092297096053 1.4035841366717 1.2373800305585 0.89200170341447 1.6517774931344 1.8135235900815 0.85156043687049 1.6948458474654 1.7470680796406 0.4649562091469 1.9803104228134 1.4191740507581 1.1829583041266 1.0659622329009 1.1215205901229 1.5777648069028 1.4729842191637 1.7118790122292 0.88301019183268 1.7744637662808 1.2949698709026 1.4290035041653 1.3295834156898 1.0365242487107 0.65384521940076 1.9009770274561 1.8173712628176 1.4356395233574 1.9176498366534 1.0611287213847 1.0314871656841 1.511213128427 1.4971705274849 1.3535339226142 1.3555690650719 1.5002471440886 1.0487099469776 1.8029113227441 1.8573572399092 1.4056099636547 1.0414507029808 0.80043874262506 1.4170860430296 1.2615764525284 0.31887475797095 1.5611834515103 1.7214350707908 1.2831579929006 1.8613677118551 1.3535690514237 1.07117961409 1.8820342549269 1.5183132473903 0.61832233225278 0.73216610588839 1.2826331652736 1.8307000563364 1.1803710327031 1.0293177870422 1.5272580844239 1.3161157170542 1.7172870803231 1.5891444223981 1.2186627898316 1.3521876815433 1.7342989498918 0.88768848932802 1.5953265347932 1.6299728272089 1.8781746919437 1.4840583464156 1.2728060646884 1.7737782622171 1.7463865742015 1.8087599563813 1.5176442296888 1.4585658935707 1.4820353753009 1.6023155363516 1.4737998764026 0.92936397230157 0.032113191131295 0.88793424308332 0.78230045304929 0.7674610503197 1.580375695964 1.2381802847054 1.7699048144482 1.2366539343258 1.5276334498876 1.2696538900469 0.60558076251546 1.7680049394837 1.5478508525485 1.6369869171925 -0.38063228967083 1.8506587812488 1.6117104590939 1.034894790806 1.8354504424729 1.1938227429081 0.99341525006018 1.7838282010903 1.299742131945 0.59747659223522 1.4565591589116 1.1958932158046 1.0974753380886 1.7848592448208 0.94164808591785 1.6143230899531 1.3190049776658 1.338208582392 0.98153201024339 1.779508978855 0.22407919541844 0.69362625536716 -0.49463694763058 1.3821953853295 1.4272461685232 0.78790982844414 1.0309197014228 1.5845919971641 1.6732281410847 1.4084894722935 1.6196855947706 0.88195209976281 0.85992883124661 1.8290554410788 1.7497681977294 1.4939857321727 1.5816465213214 1.4572102492701 1.4189258713238 0.59919003831211 1.3815904572745 1.6770111702655 -0.14987572157889 1.3376309761526 1.8805366501424 1.4404619607338 1.4127848657776 1.2451962331341 0.87289601739585 0.45233119936422 1.5438476535476 0.75351959507183 1.3767013052505 1.3980558492025 1.5436480555705 1.6040394076704 1.7925606818677 1.8216572390701 0.30736152707275 1.4668414351046 1.1037151929815 0.43363294774554 1.8142587818788 -0.47876534621443 0.57685410830325 1.2705728129406 1.711695910598 0.89944493614005 1.4943319042416 0.55678524446372 1.4347286418981 1.0256951753251 1.285656496328 0.97208448519731 1.0264540774907 1.8886323932242 1.460574599687 0.73381858913167 -0.096398842988684 1.0688058692192 1.3171851471938 1.5529270616922 1.5067195777617 0.95475594721101 1.843252095508 1.3341501186333 1.5030556225698 1.4508220679076 0.7353813057361 1.5620925788881 1.52174