# vtk DataFile Version 3.0
d-2__ created by libgimli-v1.5.0-1-g5991b6ac
ASCII
DATASET UNSTRUCTURED_GRID
POINTS 257 double
25.5	-0.25	0
25.643267391024	-0.375	0
25.690940791558	-0.19094079155751	0
28.625	-0.27380702240065	0
28.625	-0.13804348840204	0
28.518663902413	-0.18940103023301	0
28.458333333333	-0.087886572211468	0
28.416666666667	0	0
28.375	-0.13804348840204	0
28.291666666667	-0.087886572211468	0
28.333333333333	0	0
28.25	0	0
26.083333333333	0	0
26.041666666667	-0.13804348840203	0
26.125	-0.087886572211466	0
26.166666666667	0	0
26	0	0
26.708333333333	-0.13804348840203	0
26.666666666667	0	0
26.625	-0.087886572211466	0
26.208333333333	-0.07357428207177	0
26.75	0	0
26.791666666667	-0.087886572211464	0
26.333333333333	0	0
26.25	0	0
26.291666666667	-0.087886572211468	0
27.166666666667	0	0
27.208333333333	-0.07357428207177	0
27.25	0	0
26.416666666667	0	0
26.375	-0.13804348840204	0
26.458333333333	-0.087886572211468	0
27.291666666667	-0.087886572211468	0
27.333333333333	0	0
27.625	-0.13804348840204	0
27.518663902413	-0.18940103023301	0
27.625	-0.27380702240065	0
26.583333333333	0	0
28.916666666667	0	0
28.833333333333	0	0
28.875	-0.13804348840204	0
26.833333333333	0	0
26.875	-0.07357428207177	0
29.98747163413	-0.5056358037932	0
30.050519698408	-0.25547676721966	0
29.843533331918	-0.29816134131379	0
29.458333333333	-0.087886572211464	0
29.404607252882	-0.15094638411797	0
29.541666666667	-0.13804348840203	0
26.5	0	0
27.791666666667	-0.087886572211468	0
27.833333333333	0	0
27.75	0	0
27.231336097587	-0.18940103023302	0
27.125	-0.13804348840204	0
25.705488373266	-0.59091608366499	0
26.007921013115	-0.8717186506847	0
25.91135296792	-0.47048281487414	0
30.166666666667	0	0
30.208333333333	-0.087886572211464	0
30.25	0	0
27	0	0
26.916666666667	0	0
26.958333333333	-0.13804348840203	0
30.791666666667	-0.087886572211468	0
30.833333333333	0	0
30.75	0	0
27.041666666667	-0.087886572211464	0
27.083333333333	0	0
30.083333333333	0	0
30.125	-0.07357428207177	0
28.541666666667	-0.073574282071767	0
27.375	-0.13804348840204	0
27.416666666667	0	0
27.5	0	0
27.458333333333	-0.087886572211468	0
28.583333333333	0	0
28.666666666667	0	0
28.226291378505	-0.21877391554365	0
28.432011579996	-0.40775209656411	0
30.148002764253	-0.18940103023303	0
30.208717134119	-0.38392172835888	0
30.291666666667	-0.13804348840203	0
28.208333333333	-0.07357428207177	0
28.166666666667	0	0
28.125	-0.072182208352023	0
27.875	-0.13804348840204	0
26.237940586216	-0.15094638411797	0
27.916666666667	0	0
27.708333333333	-0.07357428207177	0
28.083333333333	0	0
28	0	0
28.041666666667	-0.13804348840203	0
26.190375288162	-0.21877391554366	0
27.958333333333	-0.087886572211464	0
26.541666666667	-0.073574282071767	0
26.571273919549	-0.15094638411796	0
26.317063962986	-0.25702488420529	0
27.541666666667	-0.073574282071767	0
28.5	0	0
29.583333333333	0	0
29.625	-0.087886572211466	0
28.791666666667	-0.087886572211468	0
26.203594889612	-0.40391444725954	0
27.583333333333	0	0
27.666666666667	0	0
28.75	0	0
28.958333333333	-0.087886572211464	0
29	0	0
29.041666666667	-0.13804348840203	0
28.708333333333	-0.07357428207177	0
29.083333333333	0	0
29.125	-0.087886572211466	0
29.166666666667	0	0
29.208333333333	-0.13804348840203	0
29.25	0	0
28.165334880767	-0.15260258505374	0
29.291666666667	-0.087886572211464	0
27.731336097587	-0.18940103023302	0
29.5	0	0
29.416666666667	0	0
29.333333333333	0	0
29.375	-0.07357428207177	0
29.666666666667	0	0
28.086941669094	-0.2859797646022	0
27.958333333333	-0.18219221742147	0
29.125	-0.18219221742148	0
29.228873378537	-0.27753669533404	0
29.708333333333	-0.07357428207177	0
29.041666666667	-0.23876614697008	0
28.958333333333	-0.18219221742147	0
29.833333333333	0	0
29.875	-0.13804348840204	0
29.916666666667	0	0
29.791666666667	-0.087886572211468	0
29.75	0	0
29.958333333333	-0.087886572211464	0
30	0	0
29.483730629652	-0.25702488420531	0
30.333333333333	0	0
30.375	-0.087886572211466	0
29.369620976373	-0.40603607246707	0
29.604159114629	-0.34842263547806	0
31.124752694808	-0.11296503030675	0
31	0	0
30.958333333333	-0.087886572211468	0
30.041666666667	-0.13804348840203	0
30.416666666667	0	0
30.458333333333	-0.07357428207177	0
30.875	-0.13804348840204	0
30.583333333333	0	0
30.541666666667	-0.13804348840203	0
30.625	-0.087886572211466	0
30.5	0	0
30.43533056908	-0.18940103023302	0
30.916666666667	0	0
30.385963434616	-0.36114994877356	0
30.708333333333	-0.07357428207177	0
30.666666666667	0	0
29.636111778917	-0.20065391017952	0
30.999752694808	-0.25100851870879	0
28.731336097587	-0.18940103023302	0
26.851997235747	-0.18940103023303	0
30.737940586216	-0.15094638411797	0
26.523708621495	-0.21877391554365	0
27.133853031742	-0.25547676721968	0
26.949480301592	-0.25547676721966	0
27.041666666667	-0.52911283384145	0
27.041666666667	-0.18219221742147	0
29.357041954828	-0.21877391554366	0
29.737940586216	-0.15094638411797	0
30.690375288162	-0.21877391554366	0
29.958333333333	-0.18219221742147	0
25.875	-0.11303967622539	0
25.75	0	0
26.650397296319	-0.25702488420526	0
27.292050467453	-0.38392172835888	0
27.414390113348	-0.63321254312708	0
27.469144028345	-0.36097200963104	0
27.848127708251	-0.28948918465343	0
28.848127708251	-0.28948918465343	0
28.726596951268	-0.4234584073117	0
29.731548923005	-0.26700761442393	0
30.817063962986	-0.25702488420529	0
26.031958747178	-0.33325463579056	0
26.523689393121	-0.44776195923934	0
29.184065504659	-0.43422319923747	0
29.545209981036	-0.61464357222601	0
30.552290248164	-0.29580321144285	0
31.25	0	0
26.800529041383	-0.37028063139366	0
29.130694908432	-0.28024272799092	0
28.907115884997	-0.43487734236883	0
31.5	-0.5	0
31.5	-0.25	0
31.356886217184	-0.375	0
31.308843572405	-0.19115642759521	0
31.5	0	0
27.681768476189	-0.55823447719905	0
29.041897355025	-0.3545575021244	0
28.950100433703	-0.28398118611486	0
29.746371622197	-0.43057135368151	0
29.045779100149	-0.5143168838031	0
27.615347366628	-0.83560735755964	0
27.971649595913	-0.56775148091581	0
28.235269600634	-0.41546210057925	0
28.346412380513	-0.73751448832674	0
28.007726950717	-0.98664640296265	0
26.322202955504	-0.72835150504623	0
29.798122080496	-0.68908130839227	0
30.703430397599	-0.40445925111313	0
30.914859484231	-0.44990795630246	0
29.247599241801	-0.70334449364573	0
31.053928463665	-0.58159990549132	0
31.221377875989	-0.67457110982012	0
31.225195424337	-0.49586438948828	0
30.530720924191	-0.4852517756918	0
30.323984230706	-0.57992151527177	0
25.84485407481	-1.2957460393421	0
25.743909551686	-0.8528010586154	0
30.746070739038	-0.72060716412098	0
29.604860290622	-0.8788438191921	0
29.043947453281	-1.1807973577914	0
29.54268225478	-1.3246684327942	0
29.849430697053	-0.99522786547226	0
30.043693421774	-0.75311160759413	0
28.849047319116	-0.69970565535729	0
31.000856094841	-0.87446921301307	0
31.5	-1	0
25.845623228308	-0.30002188546398	0
30.512369350266	-0.71824350459	0
30	-1.6666666666667	0
30.051778272566	-1.3024535658708	0
25.5	0	0
27.680522574649	-1.2514855461386	0
27.375	-1.6666666666667	0
27.75	-1.6666666666667	0
31.174325422113	-0.32450830281231	0
25.5	-0.5	0
26.747329141204	-0.71351083399284	0
25.5	-0.75	0
26.348572023727	-1.2023161679924	0
27.179597305363	-1.0673000334922	0
29.25	-1.6666666666667	0
25.5	-1	0
30.75	-1.6666666666667	0
31.013091550828	-1.3141602648437	0
30.625304590967	-1.106556793762	0
30.375	-1.6666666666667	0
30.189043391347	-0.96114657873573	0
28.064690440023	-1.391571216678	0
28.426745644615	-1.201505510398	0
25.5	-1.6666666666667	0
27	-1.6666666666667	0
26.25	-1.6666666666667	0
28.5	-1.6666666666667	0
31.5	-1.6666666666667	0
CELLS 429 1716
3	0	1	2	
3	3	4	5	
3	6	7	8	
3	9	10	11	
3	12	13	14	
3	14	15	12	
3	16	13	12	
3	17	18	19	
3	20	15	14	
3	7	10	8	
3	21	17	22	
3	23	24	25	
3	26	27	28	
3	29	30	31	
3	23	30	29	
3	28	32	33	
3	34	35	36	
3	19	18	37	
3	38	39	40	
3	22	41	21	
3	41	22	42	
3	43	44	45	
3	18	17	21	
3	46	47	48	
3	31	49	29	
3	50	51	52	
3	53	27	54	
3	55	56	57	
3	58	59	60	
3	61	62	63	
3	64	65	66	
3	67	68	61	
3	67	61	63	
3	69	70	58	
3	4	71	5	
3	72	73	33	
3	5	6	8	
3	74	73	75	
3	73	72	75	
3	76	4	77	
3	78	79	8	
3	80	81	82	
3	83	84	85	
3	50	86	51	
3	25	87	30	
3	86	88	51	
3	52	89	50	
3	90	91	92	
3	93	87	14	
3	94	92	91	
3	95	49	31	
3	9	8	10	
3	84	83	11	
3	19	95	96	
3	91	88	94	
3	25	30	23	
3	9	11	83	
3	97	30	87	
3	98	74	75	
3	99	71	76	
3	100	48	101	
3	33	32	72	
3	99	7	6	
3	41	42	62	
3	102	40	39	
3	71	99	6	
3	97	93	103	
3	104	34	105	
3	39	106	102	
3	74	98	104	
3	38	107	108	
3	107	109	108	
3	35	75	72	
3	106	110	102	
3	34	98	35	
3	28	27	32	
3	111	112	113	
3	109	111	108	
3	59	82	60	
3	113	114	115	
3	116	9	83	
3	114	117	115	
3	50	89	118	
3	119	120	46	
3	119	48	100	
3	110	106	77	
3	120	121	122	
3	89	52	105	
3	101	123	100	
3	124	92	125	
3	54	26	68	
3	114	126	127	
3	101	128	123	
3	129	109	130	
3	131	132	133	
3	134	131	135	
3	48	119	46	
3	115	117	121	
3	136	137	133	
3	47	138	48	
3	60	82	139	
3	82	140	139	
3	141	142	138	
3	143	144	145	
3	122	47	46	
3	146	137	136	
3	113	112	114	
3	134	132	131	
3	147	140	148	
3	149	65	64	
3	150	151	152	
3	150	153	151	
3	148	154	151	
3	147	148	153	
3	65	149	155	
3	59	58	70	
3	155	145	144	
3	82	81	156	
3	145	155	149	
3	146	69	137	
3	157	158	152	
3	154	140	82	
3	147	139	140	
3	101	48	159	
3	149	160	145	
3	102	110	161	
3	150	152	158	
3	42	22	162	
3	157	163	64	
3	5	71	6	
3	4	76	71	
3	85	84	90	
3	116	83	85	
3	96	31	164	
3	49	95	37	
3	15	20	24	
3	25	20	87	
3	14	13	93	
3	25	24	20	
3	165	166	167	
3	63	168	67	
3	54	68	67	
3	17	162	22	
3	63	62	42	
3	35	98	75	
3	34	104	98	
3	26	54	27	
3	63	42	162	
3	88	86	94	
3	125	94	86	
3	105	34	89	
3	118	89	34	
3	77	4	110	
3	161	110	4	
3	111	109	112	
3	126	112	109	
3	47	117	169	
3	120	122	46	
3	38	40	107	
3	130	107	40	
3	121	117	122	
3	117	114	169	
3	80	70	146	
3	123	128	135	
3	134	128	170	
3	159	48	138	
3	134	135	128	
3	163	152	171	
3	158	157	66	
3	154	148	140	
3	151	153	148	
3	69	146	70	
3	172	44	146	
3	9	78	8	
3	161	40	102	
3	90	92	85	
3	116	78	9	
3	92	94	125	
3	5	79	3	
3	164	31	30	
3	19	37	95	
3	173	16	174	
3	164	175	96	
3	17	19	96	
3	53	165	176	
3	53	32	27	
3	118	86	50	
3	175	17	96	
3	176	177	178	
3	118	36	179	
3	78	116	124	
3	180	3	181	
3	169	114	127	
3	114	112	126	
3	134	170	132	
3	133	132	136	
3	44	80	146	
3	146	136	172	
3	82	59	80	
3	152	151	171	
3	64	66	157	
3	80	59	70	
3	64	163	149	
3	170	101	159	
3	136	132	172	
3	85	92	116	
3	124	116	92	
3	97	164	30	
3	166	168	63	
3	14	87	20	
3	87	93	97	
3	117	47	122	
3	47	169	138	
3	101	170	128	
3	142	182	159	
3	132	45	172	
3	149	163	183	
3	31	96	95	
3	162	166	63	
3	184	93	13	
3	97	185	164	
3	156	154	82	
3	141	127	186	
3	142	141	187	
3	44	172	45	
3	152	163	157	
3	163	171	183	
3	103	93	184	
3	53	72	32	
3	154	188	151	
3	189	144	143	
3	185	175	164	
3	175	190	162	
3	118	179	86	
3	125	179	124	
3	109	107	130	
3	126	129	191	
3	161	180	40	
3	127	126	191	
3	169	141	138	
3	141	169	127	
3	125	86	179	
3	180	181	192	
3	193	194	195	
3	196	194	197	
3	149	183	160	
3	143	145	160	
3	167	176	165	
3	162	17	175	
3	198	178	177	
3	72	53	176	
3	118	34	36	
3	185	97	103	
3	126	109	129	
3	186	191	199	
3	180	130	40	
3	130	180	200	
3	161	4	3	
3	129	199	191	
3	138	142	159	
3	45	182	201	
3	130	200	129	
3	192	202	199	
3	202	186	199	
3	129	200	199	
3	142	187	201	
3	191	186	127	
3	180	192	200	
3	199	200	192	
3	180	161	3	
3	142	201	182	
3	54	67	168	
3	203	204	198	
3	79	5	8	
3	78	124	205	
3	182	170	159	
3	151	188	171	
3	185	190	175	
3	204	206	205	
3	201	43	45	
3	43	81	44	
3	207	206	204	
3	57	56	208	
3	44	81	80	
3	209	201	187	
3	35	72	178	
3	57	208	103	
3	13	16	173	
3	183	210	211	
3	141	212	187	
3	45	170	182	
3	213	214	215	
3	205	79	78	
3	216	156	217	
3	45	132	170	
3	196	197	189	
3	218	56	219	
3	178	198	36	
3	188	156	216	
3	220	211	210	
3	57	103	184	
3	204	179	198	
3	165	53	54	
3	221	222	223	
3	209	224	225	
3	43	217	81	
3	226	212	202	
3	214	227	228	
3	211	160	183	
3	210	171	188	
3	226	192	181	
3	193	215	214	
3	3	79	181	
3	205	206	79	
3	186	212	141	
3	212	186	202	
3	173	229	13	
3	167	177	176	
3	72	176	178	
3	206	226	181	
3	213	227	214	
3	217	230	216	
3	196	195	194	
3	231	232	223	
3	227	213	220	
3	206	181	79	
3	187	212	221	
3	173	174	2	
3	13	229	184	
3	174	233	2	
3	234	235	236	
3	196	189	143	
3	233	0	2	
3	160	237	143	
3	237	195	196	
3	1	0	238	
3	173	2	229	
3	177	203	198	
3	198	179	36	
3	239	190	185	
3	35	178	36	
3	192	226	202	
3	195	215	193	
3	188	216	210	
3	220	210	216	
3	213	237	211	
3	154	156	188	
3	124	179	204	
3	221	212	222	
3	240	219	55	
3	54	168	165	
3	196	143	237	
3	195	237	215	
3	55	1	238	
3	167	166	190	
3	2	1	229	
3	1	55	57	
3	190	166	162	
3	204	205	124	
3	241	208	56	
3	242	167	239	
3	223	222	243	
3	156	81	217	
3	160	211	237	
3	213	215	237	
3	183	171	210	
3	228	193	214	
3	219	244	218	
3	56	55	219	
3	184	229	57	
3	57	229	1	
3	220	213	211	
3	245	246	247	
3	230	220	216	
3	220	247	227	
3	248	247	232	
3	228	227	246	
3	55	238	240	
3	249	230	217	
3	247	249	232	
3	166	165	168	
3	221	209	187	
3	43	225	217	
3	209	43	201	
3	247	246	227	
3	190	239	167	
3	207	204	203	
3	208	185	103	
3	242	203	177	
3	207	250	251	
3	240	244	219	
3	252	218	244	
3	224	209	221	
3	217	225	249	
3	43	209	225	
3	241	242	239	
3	167	242	177	
3	253	242	241	
3	56	218	241	
3	212	226	222	
3	249	225	224	
3	234	250	207	
3	239	185	208	
3	231	223	243	
3	224	232	249	
3	252	254	218	
3	241	218	254	
3	253	241	254	
3	239	208	241	
3	206	207	251	
3	224	221	223	
3	223	232	224	
3	248	245	247	
3	234	207	203	
3	250	255	251	
3	251	226	206	
3	255	243	222	
3	249	247	230	
3	220	230	247	
3	203	242	234	
3	235	242	253	
3	255	222	251	
3	226	251	222	
3	232	231	248	
3	245	256	246	
3	228	246	256	
3	242	235	234	
3	234	236	250	
3	255	250	236	
CELL_TYPES 429
5 5 5 5 5 5 5 5 5 5 5 5 5 5 5 5 5 5 5 5 5 5 5 5 5 5 5 5 5 5 5 5 5 5 5 5 5 5 5 5 5 5 5 5 5 5 5 5 5 5 5 5 5 5 5 5 5 5 5 5 5 5 5 5 5 5 5 5 5 5 5 5 5 5 5 5 5 5 5 5 5 5 5 5 5 5 5 5 5 5 5 5 5 5 5 5 5 5 5 5 5 5 5 5 5 5 5 5 5 5 5 5 5 5 5 5 5 5 5 5 5 5 5 5 5 5 5 5 5 5 5 5 5 5 5 5 5 5 5 5 5 5 5 5 5 5 5 5 5 5 5 5 5 5 5 5 5 5 5 5 5 5 5 5 5 5 5 5 5 5 5 5 5 5 5 5 5 5 5 5 5 5 5 5 5 5 5 5 5 5 5 5 5 5 5 5 5 5 5 5 5 5 5 5 5 5 5 5 5 5 5 5 5 5 5 5 5 5 5 5 5 5 5 5 5 5 5 5 5 5 5 5 5 5 5 5 5 5 5 5 5 5 5 5 5 5 5 5 5 5 5 5 5 5 5 5 5 5 5 5 5 5 5 5 5 5 5 5 5 5 5 5 5 5 5 5 5 5 5 5 5 5 5 5 5 5 5 5 5 5 5 5 5 5 5 5 5 5 5 5 5 5 5 5 5 5 5 5 5 5 5 5 5 5 5 5 5 5 5 5 5 5 5 5 5 5 5 5 5 5 5 5 5 5 5 5 5 5 5 5 5 5 5 5 5 5 5 5 5 5 5 5 5 5 5 5 5 5 5 5 5 5 5 5 5 5 5 5 5 5 5 5 5 5 5 5 5 5 5 5 5 5 5 5 5 5 5 5 5 5 5 5 5 5 5 5 5 5 5 5 5 5 5 5 5 5 5 5 5 5 5 5 5 5 5 5 5 5 5 5 5 5 5 5 5 5 5 5 5 
CELL_DATA 429
SCALARS Coverage double 1
LOOKUP_TABLE default
1.6386560991971 2.5760763411738 3.0447972249455 3.3092600062045 2.4937680141089 2.8183184293336 2.936593020379 2.8178925836523 2.7104434596739 3.171367580955 2.8230385462074 3.1143685572629 3.3290518005631 2.7742005516438 2.8917006902707 3.346026935778 2.546169676155 2.9721161948295 3.1487846491577 3.3289333123497 3.0135487188688 2.2555468926654 3.3088331505111 2.6307862623542 3.1817066527566 3.4553393030716 2.6375396063338 1.3490885289658 3.1303157094378 3.3746306706012 2.8874151709083 3.4782297939243 2.9684507809634 3.0325206978724 2.7653074002475 3.0894332541594 2.8193961869622 3.1129461262985 2.8346680771896 3.1875386967091 2.47745885548 2.3629339802048 3.0402988373618 3.0362711367989 2.4927546788168 3.1507403692288 3.0550115376464 3.4398662486281 2.4169819954148 2.9021945982677 2.7416265501447 2.9814096312664 3.3201839686536 2.6601644294367 3.401396671942 2.6905531577939 2.8697354433192 2.3512938433122 2.7247044356007 3.3300611814999 2.9367273388621 3.0383432830566 3.3685238531713 3.1342747093269 3.0196900456385 2.9067985078245 2.0467812662391 3.1463806655115 3.4411435211651 3.1712370810891 3.5527863580051 3.0693357990251 2.712475147475 3.0879432083218 2.726096135419 2.996248998509 3.2012586014552 3.4941004681744 2.6942411439766 3.1931721272908 2.7887927286774 3.27764363706 2.8749645505443 3.1381223005155 3.1323263383764 3.5268930407227 3.0437538543737 3.4686715924551 3.1314588042872 2.6360429140983 3.0010096483588 2.6208530437163 3.0869507520929 2.7179807335007 3.0716479218558 3.3687878371029 2.7056556213813 3.3983345351819 3.4199056413604 2.5582109418787 3.0314728101619 2.765133574562 2.2759762214784 2.2457059970555 2.8251970940749 2.9063665381897 2.9381512284335 2.9557575297384 2.956568565005 2.4775040476434 2.7352508669823 3.2753257682345 2.6533805225392 3.3608138322704 2.641160573456 2.8862867014018 2.7417567870725 2.2525648727334 2.3116281207906 3.3916600427841 2.6800056555798 2.5621902838018 2.9797461048821 2.7429391945111 2.0733163681506 2.9089023500634 2.8373356094145 2.746573461603 2.4225909068498 2.7776048240739 2.9987203559195 3.1151235668885 2.9304264831196 2.4887298982457 3.2033318058682 3.1098487474614 2.5568543961767 2.3109547211947 2.6967245505966 2.2497257533474 2.7632668718972 2.9823257527452 2.6508427179506 2.9575197803086 2.6259835744794 2.8985735707488 2.9075174660644 2.6992396459536 3.0011110359416 2.765363382523 3.1053910851393 2.9010150368412 3.1888990150556 2.9194168890267 3.0754445318019 2.8133643547125 2.9032675725368 2.9396954327712 3.09110733438 2.829521961987 3.0299848269262 2.8553972731374 2.7366594104514 3.3776609597046 2.7979909289618 2.5745226911291 3.0780949752022 2.3046039980642 2.937694313058 2.7647034287859 3.0175903400733 2.9417390408139 2.6153323482597 2.7354547672514 2.7864725835336 3.0247858568542 2.7010657976903 2.8054442333942 2.4043254917605 2.513278305534 2.8596773491076 2.7225715924604 2.3590152717619 2.6225548471307 2.351767181812 2.7678329093402 2.7954126080964 2.4752706404281 2.0744147079461 2.5217009831363 2.5612365050458 2.330677852537 2.6931649767422 2.7158219162368 2.7317555632254 2.9754642623345 2.566047802954 2.7765837347773 2.5308595913365 2.416188497621 2.5774591312596 2.7102175202177 2.3948370090382 2.8310874830469 2.731765241216 2.879665077748 2.7133542990687 2.3245768552371 2.5724719006233 2.5486196402716 2.2427465215388 3.0370351243504 2.5640412621265 3.0496975297628 2.4489489152221 2.5207821590587 2.2030745040263 2.6345634451894 2.5367165722577 2.0713934796148 2.1233117877402 2.3962152078556 2.2456190555084 2.077075409285 2.4556102790853 2.4666481276952 2.1397381287894 1.9377410701635 2.8913787306778 2.4898903601513 2.5513342834115 2.1679358423419 2.3106128504077 2.6275764122852 2.4910505876145 2.8929287462589 2.5321237687192 2.5934624026642 2.5023778900656 2.3814999940748 2.4261271826158 2.587302722523 2.2388544673022 1.4195765989621 1.6436973017408 2.0721388021507 2.1315066040015 2.1692624325519 2.4850748490927 2.0032301625083 2.6014191615367 2.6971849160741 1.9481550903164 2.6462433341692 2.2939678639841 2.6145546747216 2.4957036235292 2.6911300981259 2.4155818196787 2.4110599811828 2.2797505873351 2.560767145611 2.1570952905501 2.1497571367034 2.4234258183081 2.0683729480375 2.3423571660506 2.3204795029981 2.2913992298622 2.5117100381588 2.268974585764 2.7118374860957 1.858536789568 2.5238940363416 2.3666562990723 2.6412359798899 2.2217640409314 2.1069592081941 1.9776760293532 2.145304862159 2.1571428518981 1.7225254492201 1.3573962906834 2.356670822715 1.8879950283325 2.4719255868292 1.6056106820109 2.4664933511482 1.8054333592257 1.9132565305095 2.4661980765666 1.3486541493633 2.2904043072817 1.8901287354206 2.5446168121869 1.826144779588 0.98931150104663 2.1830154546468 2.0547162493993 1.5805583469892 1.7531525526194 2.120504453791 2.4898498855183 1.2124368791579 1.5267182726987 1.9498379489392 1.8553051830897 1.0386536743412 1.8974243211354 2.0313302819768 2.0384083965783 1.2923725689455 2.2464838947832 2.0523303684608 2.0161891408915 1.9799425732503 2.1206418128015 1.9741033799636 2.3582262672502 1.8850355838488 1.2334466001468 1.6404392577833 1.5840009399757 0.84941346651453 1.2639649041695 2.0424085055056 1.6904107515076 2.1096631222334 2.0149169081187 1.8877540554378 0.84777558931362 2.0174710032981 1.6940937189453 1.936598606899 1.6736445269051 1.4669097775414 1.9943336916218 1.7896061195133 2.2807868723849 1.8596330255701 2.39377918464 1.9937570765284 1.3785791090221 1.8984750030185 1.6360358265364 1.5787851105425 2.282803827773 2.2650715782419 1.4839114022226 1.1184219774409 2.5306808209419 1.8753891331221 1.5381495730644 1.3698236625944 2.1539432325755 1.7549240910955 1.4882204416672 2.3488117544519 2.1880744038481 1.1608502005374 1.5830612283868 0.96882232042423 1.9776136307943 1.779598331365 1.487052567441 1.9629177828551 1.0946007917358 0.88894893914759 1.1408949758323 1.7692412401226 1.6728202785118 1.4422253190496 0.74684322963226 1.4830752431057 1.1181679995988 0.8067637910691 0.89885764576979 1.2046163394057 1.4603321858622 1.0574739511991 2.4482497279516 1.6766212934789 1.7301428261529 1.9257413911678 0.92051379091168 1.8821248545732 1.667874779576 1.7019989628007 1.5574053867646 1.215864472524 0.96620680940905 0.65740980355738 1.4910331035093 1.5045642996089 1.7386898656092 1.2300844929681 1.6709472009399 0.91790971799465 0.93881545685812 1.5855209383111 1.363870732342 1.1911192739836 1.6102266962136 0.80054539791257 1.1673140803929 0.59502453811598 0.74739697017113 0.69913562184986 1.2979631369059 1.4741556873229 1.2705624884633 1.0811728361592 0.68340287555125 1.3819591265899 1.0014541369019 1.5891034798269 0.88832350114747 1.2027378384471 1.2418655695357 1.3117064204815 0.85491922379219 1.0596691188292 1.3942827603954 0.70571622375525 0.59711748016494 0.65252359581019 1.0167748598705 0.95608480338875 0.86872015665143 
SCALARS Marker double 1
LOOKUP_TABLE default
0 1 2 3 4 5 6 7 8 9 10 11 12 13 14 15 16 17 18 19 20 21 22 23 24 25 26 27 28 29 30 31 32 33 34 35 36 37 38 39 40 41 42 43 44 45 46 47 48 49 50 51 52 53 54 55 56 57 58 59 60 61 62 63 64 65 66 67 68 69 70 71 72 73 74 75 76 77 78 79 80 81 82 83 84 85 86 87 88 89 90 91 92 93 94 95 96 97 98 99 100 101 102 103 104 105 106 107 108 109 110 111 112 113 114 115 116 117 118 119 120 121 122 123 124 125 126 127 128 129 130 131 132 133 134 135 136 137 138 139 140 141 142 143 144 145 146 147 148 149 150 151 152 153 154 155 156 157 158 159 160 161 162 163 164 165 166 167 168 169 170 171 172 173 174 175 176 177 178 179 180 181 182 183 184 185 186 187 188 189 190 191 192 193 194 195 196 197 198 199 200 201 202 203 204 205 206 207 208 209 210 211 212 213 214 215 216 217 218 219 220 221 222 223 224 225 226 227 228 229 230 231 232 233 234 235 236 237 238 239 240 241 242 243 244 245 246 247 248 249 250 251 252 253 254 255 256 257 258 259 260 261 262 263 264 265 266 267 268 269 270 271 272 273 274 275 276 277 278 279 280 281 282 283 284 285 286 287 288 289 290 291 292 293 294 295 296 297 298 299 300 301 302 303 304 305 306 307 308 309 310 311 312 313 314 315 316 317 318 319 320 321 322 323 324 325 326 327 328 329 330 331 332 333 334 335 336 337 338 339 340 341 342 343 344 345 346 347 348 349 350 351 352 353 354 355 356 357 358 359 360 361 362 363 364 365 366 367 368 369 370 371 372 373 374 375 376 377 378 379 380 381 382 383 384 385 386 387 388 389 390 391 392 393 394 395 396 397 398 399 400 401 402 403 404 405 406 407 408 409 410 411 412 413 414 415 416 417 418 419 420 421 422 423 424 425 426 427 428 
SCALARS Resistivity double 1
LOOKUP_TABLE default
127.89997721702 92.125552601726 87.120400236291 67.080210207588 111.2105999866 125.85699083651 108.06883935483 69.845889761148 121.58002134004 91.671478786568 74.351474094233 79.958317101173 32.943577857959 90.433451082858 89.467398596334 185.24693904054 74.832006432994 61.204983397297 60.86185594063 59.505835036559 62.985569691287 103.86467070473 84.991173799364 80.838948681853 89.286995856273 54.703715351702 61.223873132042 195.60584174584 60.026818588409 70.933934204619 73.269282995012 64.198161602561 76.272136115925 78.134852257127 70.516519727442 139.27331510277 79.018770299453 61.088524518544 79.181766484122 76.82291820417 86.418475211988 64.911573299677 82.681827729064 58.195544291457 90.662045345748 49.681003622124 87.439544617663 129.00396417382 98.640681939595 72.798565264204 69.412319765737 76.645472736914 75.331484156182 63.677028084152 46.674573300429 85.47457135057 65.479915567977 91.26628359553 52.265656368096 48.604989906866 107.57775139068 151.09288882538 87.349495707517 61.181678203624 62.245108007098 61.572145666014 100.58074771428 105.87543565177 57.343692493569 59.538209609882 86.766444473878 91.471742606934 63.777529395869 83.015410670676 63.794773790452 84.1545005168 52.628536661957 72.96531359528 52.359959642586 46.419743092782 67.73721362248 142.91670210661 85.882114941072 94.067041421347 82.194496933025 105.51156505306 172.82294319863 126.27433986678 152.7140079886 76.495303285972 38.032163259159 98.318731629416 158.99145960262 105.30412269126 41.195122713826 41.631248983147 75.230989841969 276.70190377978 50.909513533001 79.786520394738 50.456641487134 67.877857270317 101.24501641735 48.092288159955 106.49550679421 73.412061276332 55.238268411949 46.34513152193 109.17345793977 66.781530403811 50.71396261544 66.272223638997 109.7527052043 137.55197180911 78.387573986004 66.860422775503 62.650444619189 75.510172394803 62.972708564673 102.36953457326 26.334445530105 79.410931574644 86.118071091291 97.471606551913 52.669036229843 88.135700217053 31.751411699241 73.376766884679 40.007276715484 67.135040206662 61.029152406641 98.03207734637 75.318739172356 77.609617461802 55.162799094096 125.34991027228 97.417165849896 98.868983982482 99.180914476294 91.977590231781 76.671313479397 53.829921972112 77.701496140836 69.46914311669 54.975202760275 72.64281725187 38.452213890683 77.486762186939 52.868051033447 67.661258772935 113.0800779015 95.008341160374 95.646955240063 97.967884105684 68.511628824338 83.305134591552 111.66045513115 120.50040170737 75.604541359573 89.756106131825 196.17035472866 117.63848699394 74.337854245809 172.77353549076 94.120239036331 85.851533730168 94.951692453602 48.203573514962 19.966006953466 100.91680076018 117.9317259317 85.42363972099 80.49951300992 75.694953507838 81.605240750665 101.90498918984 71.055524304726 72.156928755017 104.7137522807 86.477302443012 57.777342033918 66.998051240297 80.588050498192 68.293492671762 84.759259797059 81.656481413524 75.907873599468 75.246228760054 108.45641712615 92.785608099683 78.1873150512 137.71325227415 106.34707686015 77.755929131421 71.916887752685 50.969250010596 77.161655607478 74.876198162759 57.262880327911 59.604479364452 38.354050798058 64.304122301038 49.664590624452 106.7678786509 68.169736876151 81.132500225757 76.371404737174 90.381419589377 82.324701718333 105.73152769114 95.633126212678 133.76505278721 91.123533561226 122.57888362035 100.69803818788 80.760554407863 49.080818004424 69.246130400829 85.231916498785 95.085477078361 95.887241943577 78.022205656855 123.68833769778 128.23584169217 88.977325861894 36.328944621714 53.140403108508 102.44079662229 106.32926141488 95.078138916233 45.166555274709 91.79921701038 91.686333339358 83.771290838502 85.893319497165 96.328425012067 112.56336710539 99.339031659019 111.08128529914 95.526208718016 104.94612012013 79.538572332559 152.44296419487 127.86492936329 101.12223266117 52.514703385964 51.754155355107 96.860987209779 80.941548854398 123.28237820536 89.443812121286 86.697147776166 108.70296853257 101.26610515136 132.51960168071 100.90159439062 117.09413492886 103.88363010009 124.00009150949 92.906547511404 110.41290580793 116.21411804347 159.12115768395 153.76723867318 126.68522294983 132.90438878319 121.8417194663 136.34553879214 140.5161127266 115.90765272194 113.1270880984 67.839110240809 157.18040584499 88.453363374151 93.607415306817 101.64280790991 79.043109870072 102.52637977455 135.26025923608 122.53055340629 99.335513332222 184.24869183155 191.61442241622 77.902928757041 165.70389334494 71.921096644585 147.42451983065 77.41011235222 77.675278404073 163.21880747188 97.647793554806 164.69087240485 100.51393445297 118.09559673854 83.120203215626 85.895862832697 258.67896382345 104.1812040326 101.23638485117 108.88635811301 119.02221104967 123.41709664267 72.619171740405 357.25661096636 234.09673696579 120.91121382391 210.74309116174 225.88243989099 66.948102282221 80.234922936763 180.43385575886 169.44086598686 134.20014910262 127.30179125947 151.34450354296 170.86743798835 86.207157083568 120.41045430226 84.502723212132 198.6699780359 191.70642255464 160.07683266873 112.15856403889 398.33445476349 183.26277679027 152.67142766868 220.69937151666 86.60857316047 94.702864215171 102.11967514934 310.85124927955 68.143932827997 116.43147449014 68.280496177545 105.41429174252 149.55333760402 95.501466429555 156.50504023786 108.25712807933 130.96182957533 81.272017419812 184.28095501233 141.37252143642 99.40997399538 121.70623828001 113.71239660236 89.980496834249 104.37235984246 294.7723715777 226.12994422635 73.97119016226 79.420040674522 127.14290599548 171.05235932235 103.69543875761 117.59294883552 164.99702724636 93.36553888385 108.71550114692 228.89987083557 180.21483351615 411.67452317275 102.10393366703 79.881673937466 134.61306901493 67.718283487369 202.3571782545 270.86461359673 227.45872818024 113.62013080306 130.75954469315 132.96551377361 330.86146859644 162.90799160677 228.64327174206 365.83787200537 280.45014999081 198.89335085005 208.13178598422 314.37091236952 82.512000876247 213.57851809696 171.87824859668 157.43685958602 283.71735304919 134.36828909862 193.61680320605 138.25521340553 189.33892974755 287.43147201959 249.89413571341 296.49642655322 257.5090841155 212.69130842587 187.36081206921 243.48640899975 164.9982398129 308.19960043753 269.29440899362 281.37668307916 253.66812475484 282.80830921786 160.39896303329 424.56937139483 311.27905291394 309.96429434677 306.79506584183 323.73590865825 215.03700590388 240.59401802361 327.07228485408 353.74812476991 359.39884914461 241.79385414341 333.15574412827 254.34720340375 417.08937048494 248.82934185304 214.25715247702 245.45439087771 313.88439135552 366.97736431364 315.78101788089 390.40074058004 333.44013000981 317.07040263734 297.64500381208 312.15053059446 331.18375092549 
SCALARS Resistivity_(log10) double 1
LOOKUP_TABLE default