# vtk DataFile Version 3.0
d-3__ created by libgimli-v1.5.0-1-g5991b6ac
ASCII
DATASET UNSTRUCTURED_GRID
POINTS 1483 double
3.3802423101098	12.435481574566	-0.57001420684378
3	12	-0.2857142857143
3.4959596309848	11.998298039034	0
3.2490070092203	12.168560129388	0
6.0395510135596	13.367156253372	-1.2757999763971
6.5930002103947	12.023472734859	-1.2922192071349
5.4998599382803	12.552571297657	-0.59337769664261
5.29662096318	11.932351047571	-1.5392209346082
5.6153020589615	9.1440579133635	-1.0774777831171
5.7237069713611	8.5589744845549	-0.30827017969781
5	9	-0.2857142857143
5.3151026533923	8.4249591108801	-0.38240156963578
2.3178923476779	4.1926464382665	0
2.5373292327812	4.4716333182052	-0.48281884804687
2.3342974478463	4.0018571812202	-0.30572640106363
1.9994701911036	4.4258543307655	0
4.8968211033092	12.507755029533	0
5	12	-0.2857142857143
5.2932790228536	12.494788035524	0
0	0	-0.2857142857143
0.54768630893449	0.55020446432687	-0.60775225926193
-0.16846798780902	-0.24002860812406	-0.65332445545953
-0.28063481777066	0.41453578455018	-0.44890469943706
7.7	3.575	0
7.3102059000399	3.7470939102263	0
7.7	3.6732286664853	-0.53772532608145
7.3176226410905	3.2857280588852	0
-0.7	-0.10798167686939	-0.47517111104905
-0.7	-0.57707899562378	-1.1376990549501
-0.7	-0.61986630133594	-0.43486724047509
6.3962361866998	10.611290418241	-1.3182185489848
6.565939673393	9.5694509864085	-0.57379796778735
7.1295911592009	10.496363016677	-0.48219980545192
6.3839624611364	10.341052129245	-0.35036617584397
7.7	14.3	-2.5
6.7623683783591	12.987112326146	-2.233077027779
7.7	13.059020885286	-3.3539705522597
7.7	13.327367479896	-2.129915020979
1	6	0
1	6	-0.2857142857143
0.93236760237426	6.49128333619	0
1.3454573625665	6.353105459937	0
2	5	-0.2857142857143
2.1684298754346	4.7403793023811	0
3.0226729813355	8.4836106439452	0
2.5164096947204	8.910651700233	-0.41109082170818
3.4071201441719	8.4167381876838	-0.59109415332551
2.5374808587914	8.1383747261781	-0.35604109466584
6.2778911301719	14.3	-0.61136458754231
6.2225356773765	13.691717475418	0
6.5208076177088	13.495118289851	-0.49928801204061
6.7358646795693	14.3	-0.39005656748015
5.7965188279432	13.281940723964	0
5.5320359851605	12.925291312368	0
5.353113789845	13.264183036004	0
5.5919457801018	13.101154188917	-0.33537516396337
7	10	-0.2857142857143
7	10	0
6.5010306427949	10.010760669106	0
6.8196744207924	9.5136576917357	0
7.7	1.1375	0
7.7	1.6430719769933	-0.42557297445049
7.1939383721229	1.4724531054162	0
7.7	1.625	0
6.3572581294301	1.4772201134971	-0.96507376287322
6.5574763981385	0.84898833643366	-0.48332647821142
6.7774291048203	1.7003141153393	-0.4123635555875
6.1433933962903	1.4220674799247	-0.28622251631329
-0.7	9.1984657118068	-1.9278839451739
0.33291529395702	8.3305676904572	-1.2970017952003
-0.7	8.1442617177323	-1.0898260028896
-0.7	7.644268062563	-2.0766032868031
4.508194357046	8.6258793740749	-0.60770874662543
5.0095189690676	8.5009469809039	0
4.7609249278557	8.7686419230913	0
6.2306672701993	2.67753718	0
6.6360398560532	2.4670661479797	-0.44686919005428
6.4910302172834	2.4939022421641	0
6.1550873755842	2.4572757142813	-0.33684154297057
1	1	0
1	1	-0.2857142857143
1.4901571161019	0.99574153349402	0
1.1736530561382	0.72346383359363	0
2	4	-0.2857142857143
2	4	0
1.6440539242474	4.1532454240512	0
7.7	6.9501255673919	-0.74418826283982
7	7	-0.2857142857143
6.7521552376889	6.497772044976	-0.66059363300197
7.7	6.3887218416049	-0.46884913673037
5.9482896260331	7.5800048202495	0
6	8	-0.2857142857143
6.3095291646476	7.6896230263426	0
6.1432247512519	7.3579252770212	-0.41388970597853
3.501272057481	12.437082442362	0
3.3297831413816	12.805427976196	0
3.6823393063421	12.851671876304	0
1.3671388209093	10.633374397873	-0.4152980605108
0.95248763025238	9.835503527633	-1.7808732395437
2.3518021577517	10.495200039554	-0.50930668321109
1.5373497846005	10.021005779616	-0.41781002197689
6.2054585007625	14.3	-1.3884356875417
6.9442913034148	14.3	-0.89278753613404
1	8	-0.2857142857143
0.54167473049383	7.7707286368021	-0.37916050195481
0.44975345341211	8.3808810318019	-0.31136669048163
1.022076618805	8.4121844676845	-0.45670843222423
0.89173681858685	4.6122796653579	0
1	5	-0.2857142857143
1.2386083631299	4.6841794176855	0
1.3923592539172	4.7130963353432	-0.25978315417498
6.4242299347383	5.6840176993625	-0.35514079575845
6	5	-0.2857142857143
6.3424541740313	5.2754910113697	0
6.0447933133998	5.5049876953384	0
5	2	0
5	2	-0.2857142857143
5.5190673049038	1.9208326821789	0
5.2306444928855	1.6547875838902	0
5	13	-0.2857142857143
5.257359886178	13.540476325965	-0.63012071696907
0	6	0
0	6	-0.2857142857143
0.066757795936057	6.5008369551487	0
0.29243888553297	6.1743316976873	0
7	9	-0.2857142857143
6.5033796411008	8.9981073418213	0
6.5607922823332	8.4440251373986	-0.63122800754088
6.811726958696	8.7028726276344	0
7	5	0
7	5	-0.2857142857143
6.4986646723997	4.9192017057136	0
6.7141996182955	5.3303468264748	0
7.7	9.5988491781319	-7.4736716195817
3.1507199964473	10.394874003632	-10
4.8663216648816	7.3792654266676	-10
5.1015502438684	11.553440122249	-6.405163284031
7	7	0
6.9589015254993	7.4884372736447	0
6.761634669635	7.2408783569561	0
6.0574437090791	0.20878539066113	-1.8779478182653
4.9838025543493	-1.3	-2.1179854334408
6.0308685444023	-1.3	-3.5425074203685
6.440522236286	-1.3	-2.0103523001383
3	2	0
3	2	-0.2857142857143
3.0105846506	1.4855923993349	0
2.6480485575569	1.6700894103009	0
5.0527203000088	13.535479310798	-1.5373151531841
5.0246691847863	14.3	-1.036131499603
4.1300067609037	14.3	-1.2024507502556
4.4744197407865	13.547407617085	-0.63586628370479
2.5813517996865	9.6286485974984	-1.0236151505326
2.2955236368793	9.5881134365907	-0.29154811067367
3	10	-0.2857142857143
6.4248505083522	12.522044346884	-0.42559946143008
6.465073985677	12.51782996062	0
6.1644652963082	12.36965297069	0
6.3832046574853	12.135664356038	0
2.9908655166747	12.498069465114	0
1.984703560175	7.5906357794687	-0.50777967523709
1.0508409188237	7.354634772545	-0.95680796450018
1.4515039911109	6.5829264157992	-0.56173008002516
1.3866216751759	7.5118935788728	-0.35488362790971
2.45	14.3	0
2.2168273415577	13.627179222019	0
2.4554693735383	13.497784276817	-0.39727655195048
3.032551925238	13.762466584345	0
6	11	-0.2857142857143
6	11	0
6.4843452951013	10.966514281357	0
6.2440599782187	11.234710090977	0
5.5	-0.5576923076923	0
5.247952850371	-0.29481663567353	0
5.5452342683804	-0.096294524539033	-0.49623355575102
5.1016398375367	-0.61489919294387	-0.38960315167385
2.3232496140345	4.0110297188843	-1.3835068702753
1.6586320571652	5.8268322896535	-1.5213554090482
0.71002746520551	3.976198472286	-1.505315421377
1.3296414347056	4.9089994064226	-0.82629172929831
5.6	14.3	0
4.6510156691765	14.3	-0.56274723813486
-0.090060726359069	5.5363033123106	-0.44581840212762
0	5	-0.2857142857143
-0.38456492153953	5.1805342841446	0
-0.7	5.0205501441189	-0.32507149572551
3	13	-0.2857142857143
5.1848675157348	3.2965660830064	0
5.4046165570399	2.9501485228537	-0.43988698776777
5.486289771732	3.4981838484395	0
5.4682750147717	3.0660382780841	0
0	8	0
0	8	-0.2857142857143
0.5178658825659	8.020802151125	0
0.25864598874121	7.6639427314904	0
6.7098208972434	7.2950601162224	-1.3269022195366
7.7	7.949747446039	-0.91833665053736
7.1577047253729	7.4844276204668	-0.64272934527953
4.5892004575887	3.5369189576522	-0.55981654583505
4.4420188491858	3.4660037233365	0
4.711527897636	3.7375259681419	0
4.3494632088922	3.8023533541114	0
4	6	-0.2857142857143
4	6	0
3.9913416390327	5.4988534517732	0
4.5093195747582	5.724109532591	0
1.4	14.3	0
1.5	13.55769230769	0
0.89284349994875	13.714781914708	0
1.2292962491126	13.670420041977	-0.37788942865261
4	9	-0.2857142857143
4	9	0
4.5502440226935	9.051086551406	0
4.2963154051231	9.3907765114078	0
4.5321110402369	7.5028925212181	-0.60552533206341
3.5085861108931	7.3893844432383	-0.64873189634878
4.0050480592533	7.4977657988521	0
4	8	-0.2857142857143
5.8961095330637	-1.3	-1.0125722125019
4.8982045728458	-1.3	-0.82217786726149
5.2296982103621	-0.31621891710017	-1.0679345669244
4.9010483556055	1.478997710586	0
4.5631533182214	1.9074133665015	-0.41231302454656
5.0320642355688	1.4518180616801	-0.36509190625555
3.5357179442866	0.46434418042464	-0.60031716899974
3.9407498163335	-0.4411178910574	-1.1087857494349
3.2826824657074	-0.47747544834602	-0.50866572047373
2.802260468126	-0.22902113419037	-1.4542342115515
1	13	0
1	13	-0.2857142857143
1.1191337005982	13.329221525091	0
1.4884720276527	13.02962190928	0
-0.21681247778723	8.5792000107362	0
-0.35118339610893	9.0917088673227	0
-0.7	9.0968147603684	-0.35256881313688
-0.7	8.9375	0
0.51662331659314	-0.40156299802931	-0.67799391089861
0.13474046208011	-1.3	-0.85683826964205
-0.16941603187845	-0.57512411281067	-1.4019543009948
6	13	-0.2857142857143
6	13	0
5.8068477026831	12.499749736815	0
6.1890713266052	12.67695534294	0
2.5984255358496	5.4578875982232	-0.67264342113488
2.2172109403706	5.4325217687574	0
2.4824672258873	4.9705265694472	0
2.6598112065826	5.3330483814808	0
-0.7	0.5146532048839	-0.51418317722913
-0.7	1.0492756199945	-0.88024243711367
-0.37698118088761	0.89350663208132	-0.33360419980628
-0.25096134668857	0.95145340086689	-0.90448711690516
6	2	-0.2857142857143
5.4002158317804	1.7678073061348	-0.50898482673054
5.8183999242367	2.5164331321023	-1.0840550371572
-0.13917028340788	5.5182991349521	0
0.31578338747353	5.7567158690792	0
6	12	0
6	12	-0.2857142857143
5.513035862904	11.994753403328	0
1.5285536174902	4.2362319729344	-0.43851980589517
0.57100063419133	12.499134596467	-0.56842257570583
1.2565986295401	13.42724014175	-1.149557674079
1.4486633887383	12.69302170761	-0.31714242590465
6.65	-1.3	0
6.903739311401	-1.3	-1.0953527719967
6.3980205255852	-0.38130956989248	-0.5855507841991
7.2175457166608	-0.5710098692386	-0.51938212652516
3	7	-0.2857142857143
3.5055774955602	6.7395375676091	-1.4094768265058
2.383927159844	7.4535505157878	-1.0620490471275
1	4	-0.2857142857143
1	4	0
1.2222221827385	4.2954008280594	0
0.82345085295407	4.2815033897546	0
5.6	-1.3	0
5.790373644402	-0.65252487431205	-0.38521635467031
[...]
CELL_DATA 5483
SCALARS Coverage double 1
LOOKUP_TABLE default
1.4925751201546 0.73794329609172 1.3970927659004 1.5660844200599 1.4338781312421 0.86622025188719 1.1267943539137 0.6581878584161 1.1057833402895 0.20350275560167 1.8314110616904 1.6562027639893 1.4936779692637 0.71798325358127 1.2380741346733 1.7832041067477 0.96880649454413 1.1353123690204 0.64087411751573 1.6454856127237 1.4286545828263 1.6943464311431 1.8833550036808 1.0594762717673 1.5858758645475 1.3817733718286 1.2420780365184 0.57925081487776 1.3662741376947 1.6398831045549 1.5577817673272 1.7453329743503 1.1977017266386 1.7715852052571 1.4747135605463 1.7620265457702 -0.39558166528475 1.7957212063398 0.26519278281964 1.7684920943659 0.61782197162509 1.3733575711993 1.3806914067223 1.453379260959 1.2923472226549 0.88764048873518 1.8153313346606 1.0251738724959 0.94145984343357 0.56364698485094 0.68858560640143 1.2733163979785 1.3688340181192 1.5149235585089 1.7427702229266 0.94871651679623 1.488948948111 1.8564898983759 0.85552373332679 1.8275818271657 1.5159227401284 0.62231340032394 1.4183511986755 1.514688102075 0.72434894512138 1.571576997391 1.1826843519372 0.62852602952931 1.7010175917984 1.5693191120854 0.81766420214566 1.082588174622 1.7667639632963 1.6802340092147 1.5291944540783 1.0302353101493 0.61479311778231 1.2699341730137 1.9177943487733 0.63407592321081 1.1486021468386 0.79338249262935 1.508851693374 1.2086960664113 1.4900575928547 0.9843438090851 0.60768651198751 1.8411120347578 1.7626945398135 1.5509734108554 1.1717529278321 1.2250539272448 1.2663162822536 1.2092683045829 1.4562059081085 1.6152812877537 1.5808321886535 0.96945262115061 1.6366268404693 1.6688816908925 1.2916226151797 1.79262811195 0.95553500949562 1.5848915569022 1.1120928928339 1.548032159411 0.31199089965007 1.1261103981626 1.7989793535101 1.8765707876665 1.687280856111 1.2828212683618 1.4721694060331 1.4648955126559 1.153368127694 0.74311553201129 0.94189976811078 1.0105261744715 1.5569933319006 1.1907564098691 0.94892861953794 1.6087936785369 1.2416859026474 0.41916186381566 1.260719088419 1.7765608933112 1.0564078816461 1.7965598431139 1.3181229031473 1.5301609931754 1.4896362370745 -0.20252115220076 1.0563431818376 1.4086761815557 0.80720440708827 1.5854249317 -0.39727571472404 1.3451886002143 1.3332458220779 1.8548550271447 0.55361192860734 0.16196761907658 1.7811722272114 1.6749826060865 1.50231632002 1.4193012878105 0.90673215197988 0.69100900846154 0.92830872774554 0.59128902048299 0.36866285875277 1.8532543141096 0.8092431687541 1.2193275012503 1.3885904837428 1.6242028958285 1.4774901999772 1.0471491750694 1.7234440137174 0.77482652367987 1.4223689928426 0.7476276438409 1.0197209799565 1.581182068517 1.8614243314058 1.6478863835818 0.59789733882754 1.807806320587 1.4315740920266 1.794186916724 1.5858103348657 1.174833764192 1.2789546026738 1.8247935375312 -0.075646301466045 1.861005106596 1.9076647513589 1.758145758059 1.6845320774807 0.17124031679425 1.5462116115608 0.40982250465995 1.1087964881798 -0.07917404213404 1.2092559781765 1.8611551558549 1.3921200653357 1.5610454400267 1.8179758649057 1.3223746600279 1.8567391004369 1.3255278315836 0.73323727473697 1.5983320925258 1.2729388113359 1.0670646315174 1.625471103602 1.5328614901107 1.3920545382514 1.8470772180418 0.54769697861101 1.9130455905211 1.4670792808049 1.4928509691143 1.919402077386 1.6556299434593 1.6980371003627 1.4678640104425 1.0702140838687 -0.43217388698101 1.3743140906301 1.0671977610119 1.1716371713666 1.8842181806315 1.8536545947565 1.8656656626762 1.835682568327 1.5918911196156 0.85831451020681 0.85637547556691 1.3629045184971 1.7279500097141 0.56568868437976 1.8734436507211 0.72100470631922 1.6646233412596 1.557265216311 0.85050535914787 1.9180405104683 1.1415446709489 0.91450824539849 0.87630819524092 -0.14268275048714 1.8536030369742 1.456101203454 1.1677960414559 0.5802109295266 1.7408187106725 1.687283027535 1.5320547041406 1.7597633922665 0.7022529212228 1.583002752259 0.95731464973277 1.5713082808902 1.8323620648126 1.314164779305 1.5266357822443 0.52776989836283 1.6065390572611 0.68508028783714 1.6680990723503 0.47532971312386 0.21204760855326 0.01159174593032 0.4523119387726 0.87471869948944 1.8573606977936 1.3070433771687 1.8649841295605 1.0536362356325 1.067911094395 1.5259909882891 1.347285448606 1.7856414628446 1.8283237978811 1.4513709866057 1.8569627614722 1.53500155376 0.73555019311672 1.8538467860111 1.8837375372951 1.557194488782 1.4216586005484 1.8413931467206 1.5549300938517 1.8529821333621 1.5764729101512 1.5760528024667 1.7171965634246 1.6416641377431 1.9336370402842 1.4323445087941 0.53253384391337 0.50821193120557 1.2616357395248 0.96304024706903 1.5675901173798 1.7424511765287 1.2915265197508 1.5300301599528 1.8339016264543 1.7102159588231 0.5703045736435 1.4616952778394 1.6873960701545 0.72031895735686 0.29855258632324 0.84037040649747 0.5054858064185 0.45404513321862 1.5656389104732 1.4043301045565 1.0492764055245 0.8127711526565 1.1045676646857 1.621994064817 1.3012747134034 1.5305402112614 1.1051711221923 0.73417569066448 1.5826266049531 1.2749756294044 1.2548538928518 0.63514269594159 1.1569381205393 1.5158724668387 1.083076918444 1.439908963995 1.1582599996734 1.8158341338709 1.5500176826244 1.5309791682808 1.4148008891456 1.9089745342942 1.2611071769213 1.6808550834525 1.5494167977815 0.4677704361891 -0.61903720919094 1.6251095784481 1.1983803340773 0.72753752799313 1.5360740684018 1.4878462352775 1.799202270634 1.8735864847506 0.96166937695402 -0.58607043877922 0.84733829637897 1.4041518115598 1.2280581637333 -0.24852424322486 1.0701456687466 1.0451943751457 1.4121388125917 0.92603716292941 1.5554695436366 1.362707724657 1.2424949725085 1.5204569590161 1.7121160404852 1.78050616958 0.59879718474418 1.8748774942443 0.99350294786621 0.12673969843104 1.3053697012995 1.7418836672593 0.4977549875704 1.2979546877199 1.3716434513515 0.72513081653609 1.3734860353123 1.7300480963504 1.4708523246648 0.87552870366555 1.757867800499 1.6645872328271 1.250358869779 1.3170393996898 0.96594296447324 1.4959818860783 0.27836278879722 0.57856205280895 1.1443703597973 1.2862347515567 1.5189686133901 0.76275566688427 0.36764453625185 1.8118985686454 1.8784666025336 1.8951291946104 1.6007944121693 1.3509004488096 1.8646093318342 1.817691389825 0.5776173162708 0.83351387582449 1.517971436881 0.98840129815461 -0.22696369326422 1.5830574691515 1.412046947337 1.4027129476436 1.5784990397728 1.6147948767018 1.4606145839446 1.4522848857119 1.5671753690682 1.0767355641212 0.83620468303313 0.85544373793585 1.7435328038081 1.936665868272 1.2338990651686 1.3476654235967 1.7044034389248 1.8421813602332 1.2728765642904 1.4909972395389 1.5067787689404 0.65613711899781 1.8254104335799 1.4072397574888 1.437896551448 0.95665174412852 1.5514124468919 1.8258321157369 -0.36909539018301 1.5680019005625 1.5127780440601 0.51813014214003 1.3985883044903 1.345580255777 1.039077155441 0.19784646834689 0.13270384269333 1.5873113001684 0.29854981838541 1.6748397205946 1.3003694005552 1.8045691934505 0.88582695981563 1.7346311141479 1.4352664567845 1.7330457575347 1.8118758653688 1.3970723009267 1.1920292396211 1.4188199026485 1.5613518840521 1.2718979788907 1.7384967440993 1.8304044067725 1.5565393833102 1.1348578040045 1.2728893041047 1.1916426247125 1.2319711050317 0.92464323806202 0.69213287093734 1.4450829543492 1.5180404543586 1.7706032108139 1.4672416231231 1.8797181742708 1.4215605218473 1.6852532400365 1.4861013652683 1.883599404695 1.2972959501834 0.98590964302639 1.5914913183588 1.9265978508062 1.5122867203208 0.87841961033099 1.338566568229 -0.26034357833751 1.8347820322747 0.44994904891079 1.8022329979427 1.4757609116162 0.23846818503428 1.5635670841753 1.3035551714981 1.0620041055936 1.4896091227808 1.7063283198605 1.8437257541101 1.4278205145691 1.4675539007173 1.7916459618926 1.6248631752542 1.369813414619 0.71401467338441 1.5982010113701 1.5656749404375 1.5255777012781 0.65692572381102 0.4705964135783 1.4383770778196 1.2232451972312 1.4958093884288 0.82990000278482 1.8381205617621 1.5806534752932 0.81204294169565 1.9229051189907 1.4120746383874 1.0515171022571 0.62915101998222 0.82953997577106 0.97677585348386 0.52276293787241 1.6857342359018 1.5980183719663 -0.032331463828401 1.3368801454352 1.1521950891871 1.4446982695547 1.33652630015 1.5304654789798 1.5071049892614 1.7908000581485 1.0344325218935 1.5947910538431 0.7532390547152 1.0686341637345 1.3752100334596 1.6021842893144 1.0891629971867 1.7782829462588 1.6159887276847 1.3133218308068 1.5863780067383 1.4267477409182 1.6593825456451 1.5619515894382 1.6129077934546 1.5799457711733 0.40379479575139 1.3086518129137 1.4264168910318 1.825767755966 0.7654711379678 1.7907058759313 0.79199112681458 0.88750597417169 1.3294120668186 1.796432080226 0.86495079177013 -0.68741565733264 1.3426432447615 1.5383417499732 1.2632677369092 1.6832555904486 1.4604721904995 0.65273605670921 0.8116636280491 1.8349390774501 0.93365806421456 1.5833308519111 0.83450691395882 0.621259015997 1.3538511840544 0.56700542328233 1.5624528240644 1.5977496676849 1.5188419426674 0.047182713548805 1.1108885657621 1.6811954394442 1.1965026699689 1.525797127086 1.4189290401987 1.3792284194143 1.4329721552639 1.0619600999657 1.5863068756656 1.5504443303683 1.0245529616856 1.0781100726036 0.25147970417459 1.898688943406 0.91083759885825 0.33350932106187 1.7366030802599 1.330578952466 1.6215269195234 1.694235084231 1.6695453187593 0.6403639155094 0.85091206358604 1.5782534431701 1.3741445068695 1.6487212664879 1.1402869962331 1.4864401014088 0.77149569384315 1.0477361615545 0.86153829358685 1.5040190794627 1.2380561996024 0.66904653985696 1.864877951719 1.6456452208897 -0.56303355522332 0.1223041222369 0.88466270059819 1.6558655030289 1.7336026281241 1.5420965264678 1.8375158729309 1.0893481417793 1.439366711703 0.60853748706506 1.6680239179965 0.35090896070927 1.8608543585872 1.0969912068686 1.5541460977516 0.8957179396561 1.603736495614 1.4931397230187 1.3415067494186 1.4182840330198 0.34757578872284 1.8538576986892 1.1421396885657 1.4994033171724 0.44562260314083 1.4576868755016 1.5703290031728 0.94884918345809 1.348021603148 0.87063248086597 1.6825548680346 1.0852139008373 1.4626989086767 1.3792408585399 1.2569080873013 1.8580904438441 0.68585157164232 0.40162796704339 -0.53825426187555 1.7729982734459 1.1126966052687 1.0502512572484 0.75470204271627 1.8115701889986 -0.22539737270795 1.6123620010956 1.5769722259601 1.0868591904261 1.0327458746633 1.7823323093315 1.8707249689335 1.450895851805 1.5208904772323 1.7858019978532 1.6968308898873 1.8400647282003 0.73177034453995 1.3907938499359 1.8430084225062 2.0349407011712 0.68830880020739 1.445723648604 1.3534305447867 1.4586027944037 1.5821774732718 1.6033348763084 0.61297361145235 1.7321782301645 0.69251244208079 1.1258803967233 1.4632910160764 1.9168376413292 1.109025800772 1.4031596148872 0.11102636809325 1.6687929130048 1.6521381357233 1.178251321006 0.26928746455791 1.3848478218365 0.70479277370257 1.660246052818 1.1601428311184 1.5165048566607 -0.35330062313952 1.5001208545059 0.68008808224848 0.76208491578443 1.8499671329436 1.2670023755769 1.3016275143512 1.5329885927887 0.4563683147408 1.8642835747262 1.8336365061642 1.5089763179018 1.8191206860806 0.6464379591878 1.4053929064784 1.7080934837588 1.5175952212472 1.0495231464811 1.7859741725053 0.50095370612578 1.2615722066651 1.3781968945909 1.1728647430981 0.7943073930293 1.7693878799188 1.5504426314846 1.3684308961887 1.3664285280128 0.69398853916368 1.3929307308481 -0.42639715286488 1.5774531893279 1.0031135330606 -0.27912557623066 0.2420042819841 1.5412599980885 1.7643086928382 1.3595011210962 1.3696910560395 1.8739811027785 1.5245556628002 1.0653090779101 1.6178140630496 0.91113313333129 1.1795593753481 1.4664703923471 0.96270979212184 0.34420355166456 1.3378382769236 1.4404550664148 1.8470800052542 0.74879326956702 1.6640456024731 1.5234301947849 1.452481084335 1.5642446009295 1.5844153261668 0.18639352746588 1.0314127682608 1.404727123486 1.0256328264154 1.234753751374 1.1252371078299 1.7588962103242 1.0445966999463 1.241323258466 1.4504741847415 1.7852990025604 1.7316904748939 1.736149247481 0.62948474070981 1.8576222597812 1.4674110195017 0.74647310182697 1.1810488111174 1.4845273644661 1.5833674546273 1.1029256454413 0.83076205014779 1.4353468582866 1.5641268135406 1.9191130822225 1.424455132389 1.3000555381288 0.7881865579964 1.3993603970316 1.5695815956204 1.5732002604199 1.8191275290268 1.4014323912908 1.5381449190134 1.125802611594 1.5340432938086 1.589018825695 0.82118413132024 1.8963622993424 1.3830285071805 0.56060315328682 1.5921166169118 0.87092484278075 1.5112482416752 1.207356668412 1.7217395578733 1.1913238671841 1.2023766967797 1.5606379399656 1.1350886639811 1.6497899310299 1.8478471205518 1.3233950344474 1.6381659837904 1.4548227895053 0.46881601056078 1.0086626588994 1.7813878776065 1.7181138456302 0.14218118133898 1.5855444974591 -0.5745333918329 1.3842634645989 1.7170142574572 1.2958886155622 0.60584460388898 1.7625770528134 -0.70397512473654 1.7288522638882 1.3189344171345 1.4290313249095 0.72144322254135 1.1622173962529 1.3763357587638 1.0304304460251 1.4597904861413 1.0716489009768 1.7117135484563 0.7720608008047 1.4155074390281 1.4967032559862 1.1997833797811 1.3244236257919 1.5788922280741 1.5678400022434 1.4550054254369 1.0909009392133 0.61689048140051 0.74725919229691 0.62484027532011 1.527614586578 1.5681915817266 1.5820261606001 1.0663624982881 1.6587388399614 1.5398627079329 1.0901774508269 1.5852397891336 1.434319033983 1.5948258486622 0.49280804592863 0.95613213426717 1.5989024660404 1.2591488876325 0.93944545805167 1.2970009962122 1.3381943963756 1.0534829029853 1.2700040397744 1.5260196234819 1.4997431894277 1.19572640695 1.8555154628455 1.8175720331784 1.0745098717985 1.3387671042828 0.72003447417656 1.3333318682296 0.66371105229506 1.6392978402275 -0.22731039405905 0.66824552803842 1.5259504290869 -0.29132178073541 1.6577160280932 0.69794611402235 1.2840485736723 1.3020874123198 1.4230117309603 0.8137538282636 1.3982886944992 0.46159276116288 1.2381043315666 1.5605018421059 1.261557078737 1.5419908072289 1.5308601269586 0.96345778158245 0.79161581462898 0.4257846440397 0.77968312742654 0.54323162349734 1.8487243841981 0.43878392390272 0.9164095447046 1.5181377180758 1.2904247695978 1.5956324673859 1.7641649206479 1.552650446316 1.5948821760357 1.2278778952558 1.3858484927533 1.5062421573544 1.5280586542208 1.6816538456354 0.54577472946027 1.5679140874585 1.5764793272338 1.162544061123 1.1380741970513 1.6517289719363 1.8976170687822 1.5994001465419 1.7130422868302 0.65688265901652 1.230428802144 1.8004937908809 1.5861333791014 1.287710329076 1.6605192965779 1.0166716200722 1.3658167505024 0.40499839436604 1.7295360186961 1.2923349826632 0.67206219777319 1.4563797564843 1.5144933837362 1.4039072305629 -0.17720479746577 1.2702496414543 1.5713770800567 1.8576560446942 0.31112973379108 1.7637951548862 0.80150038485469 0.2084633693288 1.2019804002251 -0.47269752106964 1.700207510246 1.9070339914587 1.4109637496119 0.99083691002834 1.5168524917628 1.7498820541602 0.38136318179554 1.5728282801004 1.477499123473 0.20409521490066 1.433653765137 1.3426153959849 1.6348673585372 0.94772008832675 0.5243681142006 1.4309429499252 0.61442707911606 1.255266010537 1.8653284590958 1.3470503920029 1.4925535920817 1.3130659879556 1.6121490133275 0.32669862355414 0.38591517572206 0.96763342265114 2.0031530162036 1.1202162067256 0.61374370032801 1.5225503367161 1.5657415690821 1.0501694953724 1.349775808765 1.2334165870463 1.3349667684225 1.5711366133194 1.4753743261043 0.73336961572239 1.2845411384313 1.3263959835159 1.604688679379 1.875954412282 0.59357417348311 0.86464510105728 0.47322974368637 1.5069124073579 1.3093831949359 0.79756926741578 0.98149559085941 1.7645592267776 0.49199224746889 1.1787745189061 1.0537010313372 1.2732965805001 1.7366896889731 1.2318616734266 1.1546693300681 1.7788989926675 1.8739099746288 1.5245470441093 1.7259475568843 1.5976300507638 1.2298509484186 0.78561468331251 0.7398433198701 1.4832264919111 1.0505703414848 1.1756051667584 1.4832597822812 0.75546730624732 1.6382772648091 -0.16925495673247 1.7981740693391 1.5999967310558 1.3485235172329 0.52334145610323 0.60345435123036 1.7480249446794 -0.03077567907837 1.1399635048248 1.2826501508951 0.5977641422804 1.1455223599377 1.843980272749 1.7963320974887 1.4941492159554 0.66030878475496 1.7002985178854 1.7339781698081 0.31314892981509 0.90294577213272 1.6305554493181 1.0058601653358 1.5471400120408 1.5399189349813 0.93297049285632 1.3660174630088 1.2237945427857 0.74967045311111 0.63680936101223 0.61285016780621 1.77703978615 1.8374299647789 2.4704186622859 1.5573171528838 0.87241003944044 1.3635884172505 1.4825884037366 0.92742065819186 1.5029240097087 1.6992781955583 0.48992328386593 1.737183524508 0.86540031634816 1.7337925341846 1.5386150342068 0.74712513133585 1.2110924772415 1.5024568573127 1.3913616940015 1.2317777719921 0.88300928959164 1.6327694047076 1.8032006882184 0.84660918223787 1.6867780161176 1.7392136314386 0.45966974145151 1.9731632491424 1.4089876906588 1.1742255880846 1.1302887032183 1.1140409059651 1.5653372514243 1.4693837732059 1.7031508353496 0.87169420149359 1.7827556639702 1.2780254311998 1.4255772127281 1.3160870184055 1.0274509093002 0.64507966098576 1.8851072618292 1.82564733022 1.429087062165 1.9104418050675 1.0451605194822 1.0261275165452 1.5175148795872 1.4869510048843 1.3592057473641 1.3523400119386 1.4942089263965 1.0429202533445 1.8049574373463 1.8478031746526 1.3984775895394 1.0615329481217 0.79832428562472 1.4059348772293 1.2526888792389 0.31032417834566 1.5540490436321 1.7101784402721 1.2820474922135 1.8572846335258 1.3422163434111 1.0547234576406 1.8694048075194 1.5103895541001 0.61105044988013 0.724382274019 1.2778294676739 1.8267712344885 1.1703619755698 1.0538582224063 1.5147827050437 1.3046124227312 1.7091721024057 1.5831845636709 1.2103921166498 1.3282257231674 1.7097716618009 0.87324685386156 1.5901608270092 1.6284479100037 1.8716713052351 1.4783990635155 1.2762387013147 1.7663719291823 1.7402604273715 1.8013819814189 1.5069245691457 1.4485447686497 1.4807271434521 1.5864265135986 1.4631821539346 0.9250982668452 0.014556752368653 0.87714012964935 0.78257346303359 0.77092963561728 1.5717973158235 1.2497476839345 1.7631885815397 1.2403224387744 1.5200195069903 1.2592179535584 0.59869473193086 1.7598036925617 1.5365574438069 1.6222596772776 -0.39445963030195 1.8405539172226 1.6018116873815 1.0254874180418 1.8242599120405 1.1821444237945 0.95217507790294 1.7619940542985 1.2823005083628 0.58633181593239 1.4480576167357 1.1844479198666 1.0894053341764 1.776918521502 0.93770990845676 1.6012482265897 1.312457018733 1.3263433040121 0.96897053589716 1.7686558642192 0.21752630506843 0.68643624295348 -0.51903790501534 1.3750819402236 1.4153573166847 0.78316897943343 1.054694249476 1.5811557752955 1.6568763095521 1.3972001653495 1.6137803459799 0.87671522816568 0.851216819864 1.8202787737575 1.7401686417651 1.4830473937795 1.5724926223106 1.4537891883606 1.4106651615293 0.58969424042593 1.373404335632 1.6654369715726 -0.17068740300555 1.3276602687943 1.8701121515588 1.4261832637633 1.4048476696443 1.2378071167585 0.86287163742671 0.45215245980171 1.5385585587953 0.74509121776557 1.3695766302412 1.3876484859916 1.5444587233594 1.6054065033315 1.7780660653401 1.8141020441117 0.29727665179645 1.4594537419403 1.0951495502481 0.42863568534875 1.8043279083213 -0.49297523263871 0.5712317539827 1.2764062743541 1.7085151923482 0.88295197460892 1.4849063173289 0.54757731251781 1.4211975261916 1.0202175117567 1.3140616104908 0.96164118456589 1.0176345954159 1.8753932730224 1.455988456684 0.73078458756891 -0.10384358419958 1.0612008823637 1.3102500669824 1.5487796402805 1.5009002424694 0.95358075967168 1.8322430158538 1.3257472933647 1.4906226811221 1.4403279626617 0.73707706915797 1.5528727451717 1.508144644136 1.9261775156025 1.431