# vtk DataFile Version 3.0
d-3__ created by libgimli-v1.5.0-1-g5991b6ac
ASCII
DATASET UNSTRUCTURED_GRID
POINTS 1483 double
3.3802423101098	12.435481574566	-0.57001420684378
3	12	-0.2857142857143
3.4959596309848	11.998298039034	0
3.2490070092203	12.168560129388	0
6.0395510135596	13.367156253372	-1.2757999763971
6.5930002103947	12.023472734859	-1.2922192071349
5.4998599382803	12.552571297657	-0.59337769664261
5.29662096318	11.932351047571	-1.5392209346082
5.6153020589615	9.1440579133635	-1.0774777831171
5.7237069713611	8.5589744845549	-0.30827017969781
5	9	-0.2857142857143
5.3151026533923	8.4249591108801	-0.38240156963578
2.3178923476779	4.1926464382665	0
2.5373292327812	4.4716333182052	-0.48281884804687
2.3342974478463	4.0018571812202	-0.30572640106363
1.9994701911036	4.4258543307655	0
4.8968211033092	12.507755029533	0
5	12	-0.2857142857143
5.2932790228536	12.494788035524	0
0	0	-0.2857142857143
0.54768630893449	0.55020446432687	-0.60775225926193
-0.16846798780902	-0.24002860812406	-0.65332445545953
-0.28063481777066	0.41453578455018	-0.44890469943706
7.7	3.575	0
7.3102059000399	3.7470939102263	0
7.7	3.6732286664853	-0.53772532608145
7.3176226410905	3.2857280588852	0
-0.7	-0.10798167686939	-0.47517111104905
-0.7	-0.57707899562378	-1.1376990549501
-0.7	-0.61986630133594	-0.43486724047509
6.3962361866998	10.611290418241	-1.3182185489848
6.565939673393	9.5694509864085	-0.57379796778735
7.1295911592009	10.496363016677	-0.48219980545192
6.3839624611364	10.341052129245	-0.35036617584397
7.7	14.3	-2.5
6.7623683783591	12.987112326146	-2.233077027779
7.7	13.059020885286	-3.3539705522597
7.7	13.327367479896	-2.129915020979
1	6	0
1	6	-0.2857142857143
0.93236760237426	6.49128333619	0
1.3454573625665	6.353105459937	0
2	5	-0.2857142857143
2.1684298754346	4.7403793023811	0
3.0226729813355	8.4836106439452	0
2.5164096947204	8.910651700233	-0.41109082170818
3.4071201441719	8.4167381876838	-0.59109415332551
2.5374808587914	8.1383747261781	-0.35604109466584
6.2778911301719	14.3	-0.61136458754231
6.2225356773765	13.691717475418	0
6.5208076177088	13.495118289851	-0.49928801204061
6.7358646795693	14.3	-0.39005656748015
5.7965188279432	13.281940723964	0
5.5320359851605	12.925291312368	0
5.353113789845	13.264183036004	0
5.5919457801018	13.101154188917	-0.33537516396337
7	10	-0.2857142857143
7	10	0
6.5010306427949	10.010760669106	0
6.8196744207924	9.5136576917357	0
7.7	1.1375	0
7.7	1.6430719769933	-0.42557297445049
7.1939383721229	1.4724531054162	0
7.7	1.625	0
6.3572581294301	1.4772201134971	-0.96507376287322
6.5574763981385	0.84898833643366	-0.48332647821142
6.7774291048203	1.7003141153393	-0.4123635555875
6.1433933962903	1.4220674799247	-0.28622251631329
-0.7	9.1984657118068	-1.9278839451739
0.33291529395702	8.3305676904572	-1.2970017952003
-0.7	8.1442617177323	-1.0898260028896
-0.7	7.644268062563	-2.0766032868031
4.508194357046	8.6258793740749	-0.60770874662543
5.0095189690676	8.5009469809039	0
4.7609249278557	8.7686419230913	0
6.2306672701993	2.67753718	0
6.6360398560532	2.4670661479797	-0.44686919005428
6.4910302172834	2.4939022421641	0
6.1550873755842	2.4572757142813	-0.33684154297057
1	1	0
1	1	-0.2857142857143
1.4901571161019	0.99574153349402	0
1.1736530561382	0.72346383359363	0
2	4	-0.2857142857143
2	4	0
1.6440539242474	4.1532454240512	0
7.7	6.9501255673919	-0.74418826283982
7	7	-0.2857142857143
6.7521552376889	6.497772044976	-0.66059363300197
7.7	6.3887218416049	-0.46884913673037
5.9482896260331	7.5800048202495	0
6	8	-0.2857142857143
6.3095291646476	7.6896230263426	0
6.1432247512519	7.3579252770212	-0.41388970597853
3.501272057481	12.437082442362	0
3.3297831413816	12.805427976196	0
3.6823393063421	12.851671876304	0
1.3671388209093	10.633374397873	-0.4152980605108
0.95248763025238	9.835503527633	-1.7808732395437
2.3518021577517	10.495200039554	-0.50930668321109
1.5373497846005	10.021005779616	-0.41781002197689
6.2054585007625	14.3	-1.3884356875417
6.9442913034148	14.3	-0.89278753613404
1	8	-0.2857142857143
0.54167473049383	7.7707286368021	-0.37916050195481
0.44975345341211	8.3808810318019	-0.31136669048163
1.022076618805	8.4121844676845	-0.45670843222423
0.89173681858685	4.6122796653579	0
1	5	-0.2857142857143
1.2386083631299	4.6841794176855	0
1.3923592539172	4.7130963353432	-0.25978315417498
6.4242299347383	5.6840176993625	-0.35514079575845
6	5	-0.2857142857143
6.3424541740313	5.2754910113697	0
6.0447933133998	5.5049876953384	0
5	2	0
5	2	-0.2857142857143
5.5190673049038	1.9208326821789	0
5.2306444928855	1.6547875838902	0
5	13	-0.2857142857143
5.257359886178	13.540476325965	-0.63012071696907
0	6	0
0	6	-0.2857142857143
0.066757795936057	6.5008369551487	0
0.29243888553297	6.1743316976873	0
7	9	-0.2857142857143
6.5033796411008	8.9981073418213	0
6.5607922823332	8.4440251373986	-0.63122800754088
6.811726958696	8.7028726276344	0
7	5	0
7	5	-0.2857142857143
6.4986646723997	4.9192017057136	0
6.7141996182955	5.3303468264748	0
7.7	9.5988491781319	-7.4736716195817
3.1507199964473	10.394874003632	-10
4.8663216648816	7.3792654266676	-10
5.1015502438684	11.553440122249	-6.405163284031
7	7	0
6.9589015254993	7.4884372736447	0
6.761634669635	7.2408783569561	0
6.0574437090791	0.20878539066113	-1.8779478182653
4.9838025543493	-1.3	-2.1179854334408
6.0308685444023	-1.3	-3.5425074203685
6.440522236286	-1.3	-2.0103523001383
3	2	0
3	2	-0.2857142857143
3.0105846506	1.4855923993349	0
2.6480485575569	1.6700894103009	0
5.0527203000088	13.535479310798	-1.5373151531841
5.0246691847863	14.3	-1.036131499603
4.1300067609037	14.3	-1.2024507502556
4.4744197407865	13.547407617085	-0.63586628370479
2.5813517996865	9.6286485974984	-1.0236151505326
2.2955236368793	9.5881134365907	-0.29154811067367
3	10	-0.2857142857143
6.4248505083522	12.522044346884	-0.42559946143008
6.465073985677	12.51782996062	0
6.1644652963082	12.36965297069	0
6.3832046574853	12.135664356038	0
2.9908655166747	12.498069465114	0
1.984703560175	7.5906357794687	-0.50777967523709
1.0508409188237	7.354634772545	-0.95680796450018
1.4515039911109	6.5829264157992	-0.56173008002516
1.3866216751759	7.5118935788728	-0.35488362790971
2.45	14.3	0
2.2168273415577	13.627179222019	0
2.4554693735383	13.497784276817	-0.39727655195048
3.032551925238	13.762466584345	0
6	11	-0.2857142857143
6	11	0
6.4843452951013	10.966514281357	0
6.2440599782187	11.234710090977	0
5.5	-0.5576923076923	0
5.247952850371	-0.29481663567353	0
5.5452342683804	-0.096294524539033	-0.49623355575102
5.1016398375367	-0.61489919294387	-0.38960315167385
2.3232496140345	4.0110297188843	-1.3835068702753
1.6586320571652	5.8268322896535	-1.5213554090482
0.71002746520551	3.976198472286	-1.505315421377
1.3296414347056	4.9089994064226	-0.82629172929831
5.6	14.3	0
4.6510156691765	14.3	-0.56274723813486
-0.090060726359069	5.5363033123106	-0.44581840212762
0	5	-0.2857142857143
-0.38456492153953	5.1805342841446	0
-0.7	5.0205501441189	-0.32507149572551
3	13	-0.2857142857143
5.1848675157348	3.2965660830064	0
5.4046165570399	2.9501485228537	-0.43988698776777
5.486289771732	3.4981838484395	0
5.4682750147717	3.0660382780841	0
0	8	0
0	8	-0.2857142857143
0.5178658825659	8.020802151125	0
0.25864598874121	7.6639427314904	0
6.7098208972434	7.2950601162224	-1.3269022195366
7.7	7.949747446039	-0.91833665053736
7.1577047253729	7.4844276204668	-0.64272934527953
4.5892004575887	3.5369189576522	-0.55981654583505
4.4420188491858	3.4660037233365	0
4.711527897636	3.7375259681419	0
4.3494632088922	3.8023533541114	0
4	6	-0.2857142857143
4	6	0
3.9913416390327	5.4988534517732	0
4.5093195747582	5.724109532591	0
1.4	14.3	0
1.5	13.55769230769	0
0.89284349994875	13.714781914708	0
1.2292962491126	13.670420041977	-0.37788942865261
4	9	-0.2857142857143
4	9	0
4.5502440226935	9.051086551406	0
4.2963154051231	9.3907765114078	0
4.5321110402369	7.5028925212181	-0.60552533206341
3.5085861108931	7.3893844432383	-0.64873189634878
4.0050480592533	7.4977657988521	0
4	8	-0.2857142857143
5.8961095330637	-1.3	-1.0125722125019
4.8982045728458	-1.3	-0.82217786726149
5.2296982103621	-0.31621891710017	-1.0679345669244
4.9010483556055	1.478997710586	0
4.5631533182214	1.9074133665015	-0.41231302454656
5.0320642355688	1.4518180616801	-0.36509190625555
3.5357179442866	0.46434418042464	-0.60031716899974
3.9407498163335	-0.4411178910574	-1.1087857494349
3.2826824657074	-0.47747544834602	-0.50866572047373
2.802260468126	-0.22902113419037	-1.4542342115515
1	13	0
1	13	-0.2857142857143
1.1191337005982	13.329221525091	0
1.4884720276527	13.02962190928	0
-0.21681247778723	8.5792000107362	0
-0.35118339610893	9.0917088673227	0
-0.7	9.0968147603684	-0.35256881313688
-0.7	8.9375	0
0.51662331659314	-0.40156299802931	-0.67799391089861
0.13474046208011	-1.3	-0.85683826964205
-0.16941603187845	-0.57512411281067	-1.4019543009948
6	13	-0.2857142857143
6	13	0
5.8068477026831	12.499749736815	0
6.1890713266052	12.67695534294	0
2.5984255358496	5.4578875982232	-0.67264342113488
2.2172109403706	5.4325217687574	0
2.4824672258873	4.9705265694472	0
2.6598112065826	5.3330483814808	0
-0.7	0.5146532048839	-0.51418317722913
-0.7	1.0492756199945	-0.88024243711367
-0.37698118088761	0.89350663208132	-0.33360419980628
-0.25096134668857	0.95145340086689	-0.90448711690516
6	2	-0.2857142857143
5.4002158317804	1.7678073061348	-0.50898482673054
5.8183999242367	2.5164331321023	-1.0840550371572
-0.13917028340788	5.5182991349521	0
0.31578338747353	5.7567158690792	0
6	12	0
6	12	-0.2857142857143
5.513035862904	11.994753403328	0
1.5285536174902	4.2362319729344	-0.43851980589517
0.57100063419133	12.499134596467	-0.56842257570583
1.2565986295401	13.42724014175	-1.149557674079
1.4486633887383	12.69302170761	-0.31714242590465
6.65	-1.3	0
6.903739311401	-1.3	-1.0953527719967
6.3980205255852	-0.38130956989248	-0.5855507841991
7.2175457166608	-0.5710098692386	-0.51938212652516
3	7	-0.2857142857143
3.5055774955602	6.7395375676091	-1.4094768265058
2.383927159844	7.4535505157878	-1.0620490471275
1	4	-0.2857142857143
1	4	0
1.2222221827385	4.2954008280594	0
0.82345085295407	4.2815033897546	0
5.6	-1.3	0
5.790373644402	-0.65252487431205	-0.38521635467031
[...]
CELL_DATA 5483
SCALARS Coverage double 1
LOOKUP_TABLE default
1.504930902969 0.74988525010543 1.4077892920808 1.5722541232589 1.4471364330447 0.87873983372669 1.1402373336449 0.66970637276733 1.1136122303416 0.21720605544305 1.8436205366745 1.6618294513657 1.4983488372008 0.729261723818 1.2511977026271 1.7920111215795 0.98189304617383 1.1455152468075 0.62155742023572 1.6528361933111 1.4388751152603 1.7096008523333 1.8973374730471 1.0719559737428 1.5972685117868 1.3947606025084 1.2439250932758 0.59009696803482 1.3463497780018 1.6533950998576 1.5707106112009 1.7555090029731 1.2126674318425 1.7845630334503 1.4834900846785 1.7758140718019 -0.36586091231536 1.8056344235504 0.27504070090212 1.7506673884487 0.62625945281459 1.3725371938727 1.3915465031161 1.4641661452826 1.2895230865953 0.89334579811354 1.825310157095 1.0383480337996 0.9462940584496 0.57419679135988 0.69437995308429 1.2818604393065 1.3829188055358 1.5303459430154 1.465369259158 0.96062693350196 1.501911908213 1.8689729881962 0.86214153029581 1.8396215190663 1.5231831896136 0.63431943226821 1.427240401453 1.5246480382782 0.73094840878733 1.5855997125593 1.152317173355 0.6405211692532 1.7151806182978 1.5725566522761 0.83147056604095 1.0928433553862 1.7836797738085 1.6930525165903 1.5388964774658 1.0366147504689 0.62760569449103 1.2736383000013 1.9334721351634 0.64750272241597 1.1586280603617 0.8051018813314 1.508715589661 1.2204557443472 1.5010236441996 1.0007479610787 0.61091391992863 1.8484765505978 1.7722822725028 1.5546619808284 1.1836411180157 1.2676579048199 1.2780125209182 1.2181183792228 1.4615257243851 1.6261380227422 1.586348579519 0.9785354681197 1.6450889035497 1.6774817307479 1.2971503520535 1.8046036992218 0.96503083440316 1.6015065986752 1.1217534655163 1.5458173359655 0.32167595418176 1.1369506186077 1.8129748925314 1.884810246804 1.7039783411356 1.29152880259 1.4808148835797 1.4779572120824 1.1635815383169 0.74654000381101 0.9508684572165 1.0211109878756 1.5649258440704 1.2031687501154 0.96047181998914 1.618839686769 1.2525975688214 0.43351090507198 1.2683190361792 1.7916738736961 1.060149084386 1.8107662220533 1.3304697630593 1.5419662756264 1.5036040346513 -0.19759616517742 1.0706745004086 1.4221359591903 0.81939327098851 1.5923659705144 -0.39546922548386 1.3554169562943 1.3484177401334 1.8665618932164 0.56358849828657 0.1733934314732 1.7930161137522 1.6868698918658 1.5128587288852 1.4231523797789 0.87684491615639 0.7048227405141 0.93685112103634 0.59459363314857 0.37627398351295 1.8647777001817 0.82054607999765 1.2086818907712 1.3997635998909 1.6380495034199 1.4705837034648 1.0541107438525 1.7369298734576 0.78608237322519 1.4319350513572 0.75349039312441 0.96071398266929 1.5903071374586 1.8727229619282 1.6507120290479 0.60121093403813 1.8154381864476 1.4370304187962 1.8052690652376 1.5906693462746 1.1764697609243 1.2889002553692 1.8404450921331 -0.073216243069841 1.8738108390515 1.9220329059541 1.7685347870919 1.6903881376099 0.18142981219786 1.5546021346713 0.41422288899364 1.1214595871316 -0.069843579228081 1.2149592897118 1.8708287261685 1.4022538039577 1.5700305386266 1.8310752934874 1.3350110566454 1.8716313349768 1.3338402942449 0.74004003668722 1.6067423618204 1.271616123285 1.0798895898943 1.6438727984439 1.5437996722713 1.4021950568957 1.8574147112929 0.55741322580502 1.9281300520069 1.4793893990409 1.5058991756912 1.9308111641959 1.6688640387884 1.7062837955737 1.4772440242744 1.0817073449348 -0.42013170858505 1.3790558011334 1.0760684750846 1.1793672761794 1.8935297824579 1.8643606367729 1.8770437207983 1.8478931445394 1.6040735949281 0.86987721462304 0.8613572402489 1.3762129014045 1.7377812269653 0.56368620317516 1.8898952453812 0.73238736791342 1.6816151319229 1.5632266124918 0.85927652744191 1.926392178836 1.1613628340679 0.92137113432925 0.88298678190792 -0.12569427435089 1.8658071771097 1.4563793657738 1.1711418457281 0.5724091668001 1.7551488488539 1.7084032105487 1.5445840019465 1.7671634738983 0.70635333766089 1.5883322104241 0.97234330866271 1.583039114928 1.8458108170567 1.3304557345878 1.5349153041184 0.54795705720617 1.6191107943827 0.69159501031917 1.6690792172789 0.47409646757705 0.22371487248322 0.034616981466442 0.45853007025055 0.88661886621016 1.8682790729227 1.3153788873842 1.874445886666 1.0591704142923 1.0761673827604 1.5408194160468 1.3532207952971 1.8049901496652 1.8422511827827 1.4608208239992 1.8623511709757 1.5459098641574 0.74516235847037 1.8624753576505 1.897945997639 1.558475559893 1.4341424464687 1.8589748172264 1.5594760327045 1.8626084113938 1.5900668085195 1.591931351478 1.7289067662485 1.6552210331885 1.9490407948766 1.446583916245 0.54449266924166 0.51159480943504 1.2789619167587 0.97256871679111 1.578956758287 1.7525408170828 1.3055394879421 1.5358517708122 1.8480476491186 1.7259167494428 0.58189423062038 1.4742245786148 1.7043896247818 0.72704989327668 0.30669933442323 0.85009900402847 0.51003623166528 0.45834155697938 1.5764665576794 1.4075124767018 1.0198179325401 0.8253815940542 1.1215150902366 1.6281461337212 1.3076407607368 1.5383337656282 1.1130219855258 0.74861110479919 1.5915604114591 1.2780124009561 1.2569571582848 0.64751496454923 1.1710283449913 1.5267697748345 1.0846310827933 1.4496531780363 1.1694571803927 1.8281474224503 1.5597684877113 1.5418061980648 1.4249715459312 1.9184762083316 1.2702091939203 1.6983522576851 1.5601851210308 0.47464356981744 -0.60664310814466 1.6364495563202 1.2088566227818 0.74103692962295 1.5429896193479 1.4985439152143 1.8116364532198 1.8875185147886 0.96781396272453 -0.56026914917826 0.85871323703076 1.4167651882964 1.2274008219316 -0.22623491636368 1.0540412459261 1.0581735095253 1.4195863790601 0.8937503243579 1.5703504922515 1.3765276652627 1.2521853520569 1.5354554969315 1.719704246384 1.7747676953068 0.61212724244475 1.8843116345222 1.0112320878285 0.13300020806104 1.3183491154597 1.7167264245996 0.50220923541088 1.3094938744617 1.3762525080209 0.72610366507999 1.3845707289997 1.7444305841817 1.4798175911643 0.88708764858144 1.7625226873027 1.6801428071845 1.2612841244916 1.3179182644587 0.97909004880313 1.5047769038306 0.28332652819038 0.58951735292701 1.1544581280989 1.2974344975454 1.5266658100756 0.77008766235774 0.3791769977532 1.8281488922696 1.8901958044964 1.9038604717705 1.6082498131634 1.3617066473344 1.879987316516 1.8300022175511 0.58990256490097 0.83925377199618 1.5241847262634 0.99959232363158 -0.21211214433362 1.5983484663861 1.4198523177505 1.3932328176702 1.5851880654429 1.6248130926848 1.4732725788237 1.4672251158015 1.5652254995392 1.0840775124718 0.83729281876385 0.88358824206185 1.7525794474982 1.9396497602084 1.2480828148502 1.3591131446335 1.7200005659137 1.8559583648433 1.2763570689883 1.5031501700249 1.5184623842252 0.67001836344322 1.8343280965258 1.4251807288678 1.4509773975558 0.96185413004917 1.5651576572382 1.8386327929007 -0.36950516884766 1.5766545639493 1.5179529728041 0.53702855554865 1.4050969817859 1.3634763215021 1.0530612296985 0.21124877551769 0.14831433420812 1.6015878281971 0.32227389828517 1.6839982470885 1.3073086231552 1.8140544688949 0.89605428510117 1.7461151192228 1.445770181863 1.7470987060222 1.8120318382611 1.4090042501153 1.1988572223895 1.4311320434127 1.57353331444 1.2803744296158 1.7566145657424 1.8416182632731 1.5606452345551 1.1399828098067 1.2782924222029 1.2000548957188 1.2426597023124 0.9306116742977 0.69809363491997 1.456756339667 1.530051161401 1.7937934930032 1.4800432464136 1.8892506241535 1.410284541432 1.6990767988365 1.49503863415 1.8958958375829 1.2659758033634 0.99845175438805 1.6023442550222 1.9345255442652 1.5169195354849 0.87484991333924 1.3487770997952 -0.23473772363594 1.8472009476627 0.4697229952029 1.8189732755791 1.4825718043059 0.24352014806664 1.5760976996692 1.3160289691894 1.0712649817906 1.5017650179335 1.7211366213357 1.8563761222039 1.4316341787001 1.4745456072846 1.8083011228101 1.6358183329636 1.3771658582993 0.71504848749553 1.5962572939862 1.574473743989 1.5326972414956 0.66919358129302 0.47729870036685 1.4355985101165 1.2391658038361 1.5097089011071 0.83999539565813 1.8513097036495 1.6061729760055 0.82192605038128 1.9379580598176 1.4244947317351 1.0562440191138 0.63292304629441 0.83251511023955 0.98633074329749 0.53402492772013 1.6994087728 1.6118683073707 -0.0080994611856367 1.3455451606754 1.1625886949877 1.4533531884994 1.346952982392 1.5421642558466 1.5196000722062 1.8096954190215 1.0439180901813 1.6037526051851 0.76144772196255 1.0764313033317 1.3891983900239 1.6037913055156 1.0979051535115 1.7869723132684 1.6253163107756 1.3210975005661 1.6017096592937 1.436821756558 1.6709564311291 1.5690195933252 1.622108103497 1.5869327570378 0.41777445514706 1.3163153021538 1.4408675878367 1.8271309611519 0.77364565291565 1.8013873384098 0.82050237390158 0.8977380219628 1.3404134700845 1.7975917153565 0.87723233858236 -0.68761765478931 1.4230914464659 1.5449904898683 1.274720160165 1.7015772036912 1.475095910731 0.66705468256585 0.82410707534737 1.8480967667044 0.93527438413651 1.5912483387094 0.83943641792576 0.6287628084983 1.3627760411616 0.5685180021888 1.57088517267 1.6095380679241 1.5320735988054 0.05628034948332 1.1217261109085 1.7013879625907 1.2027181099704 1.5431018715244 1.4327557582473 1.3897229327554 1.4345919646618 1.0686116636464 1.5961047583679 1.5629649785222 1.0219156771654 1.0841794496251 0.25528160979848 1.9156873171646 0.92220545875709 0.33689318608521 1.7436446915249 1.331430468722 1.626802116123 1.7032783876276 1.679930150968 0.65215061505881 0.85295689526449 1.5979652050683 1.389622479922 1.6591361901658 1.1388120522691 1.4993679739614 0.78284165503811 1.0563760443053 0.86606886120211 1.5132813008855 1.2390094706195 0.67814281934116 1.8796172750418 1.6623837765821 -0.54548293504346 0.13520035073256 0.89368041799323 1.6549113831528 1.7548499484027 1.5560001062055 1.8461940659486 1.103416760638 1.4534635696331 0.61701235446429 1.6847959333435 0.37712620338529 1.8925506428316 1.1114892268171 1.5698454590295 0.90121611300186 1.6135885294555 1.5018558783363 1.355138242525 1.4357426083588 0.35671500529215 1.8570881137639 1.1433169127372 1.5005737862241 0.455761384582 1.4727485882477 1.5826622325789 0.95518682871819 1.3614819748161 0.88239895365125 1.6969970867813 1.0991122305593 1.473440052154 1.380142206129 1.2694160714247 1.8701675202272 0.6937151466827 0.41337873999374 -0.52320116909668 1.7842345231104 1.1261741902276 1.0529845636673 0.75838863838481 1.8244727630816 -0.19847876740687 1.6238782020762 1.5854499763914 1.1000417155915 1.0359751560413 1.7904121840859 1.8797275875995 1.4675438530296 1.5329033941483 1.7961129354271 1.6881555183808 1.8584430412858 0.73232698641882 1.4467983448247 1.8572622362465 2.0558108667489 0.70164861434656 1.4551440949086 1.3703017269716 1.4695174332411 1.5838807199189 1.609825189462 0.62380307026613 1.7441735273385 0.70411525081935 1.1353454689532 1.4746701335476 1.9315800808464 1.1284600976519 1.415341131378 0.11546151066391 1.6837189132807 1.6658409230055 1.1527935418548 0.27963800364314 1.3986130690706 0.71636640230852 1.6640463637745 1.1830534282781 1.521538520422 -0.34436339696191 1.492823071648 0.67257637411102 0.77162522944995 1.8587285488261 1.2732917263772 1.3219620379619 1.5386673607207 0.46347631940659 1.8728076237724 1.8475238832195 1.5209682795779 1.8321318168994 0.66219525789855 1.4702659327445 1.3922151147812 1.5285247292271 1.0387527867416 1.7989401706083 0.50924488118439 1.2680191396744 1.3879966686076 1.1827676169622 0.80541599194376 1.7813558936662 1.5642448857399 1.3873009703964 1.3744570260855 0.70853537723278 1.3938452910534 -0.40891907785969 1.5901267550419 1.0089747147426 -0.27720145610526 0.26049814114281 1.5449548816485 1.7414363890486 1.1715721349116 1.3810107177938 1.8696701444514 1.5362203015395 1.0782565417675 1.6278588658082 0.91899010423772 1.192320092436 1.4737037438898 0.97262350621829 0.34988155627981 1.4257809934117 1.4500536444499 1.8608782794368 0.76036351074848 1.6693486918415 1.5382774988973 1.4597732707414 1.571361758529 1.593738107358 0.19484087106384 0.99928149663707 1.4203715092603 1.0370328427801 1.2392461564379 1.1324888306142 1.7642445905771 1.0563522304476 1.250284628149 1.4635671183587 1.8012962376322 1.7404892012656 1.7543858386676 0.6395184452256 1.8704642870347 1.4770267922613 0.75735318722708 1.1880131630933 1.4969682978639 1.6203180298902 1.1140292290232 0.83804131572107 1.4464881600912 1.5745687151428 1.9275621851652 1.4291699375166 1.3036334862434 0.7994535383392 1.4095203193915 1.5681027679607 1.5865422049363 1.8235854088974 1.4141106418469 1.5516021708838 1.1307053440651 1.5469441702199 1.599830724293 0.82669535584655 1.9121196857876 1.3951539645872 0.5707799241231 1.6009443562615 0.88214659882239 1.5265479153897 1.2223755287855 1.7365838522425 1.2026262969132 1.2108885966043 1.5660172345553 1.1490226543576 1.6594362693397 1.8605418611413 1.3233624512415 1.6469655833955 1.460576819117 0.48377253830132 1.0344321680471 1.7932804299017 1.7321456360286 0.14958714582599 1.5945964106429 -0.54881662781315 1.3974843192955 1.7313073616993 1.3013318495535 0.61481243549118 1.7746134496851 -0.70395967552765 1.7401827680245 1.3256530253758 1.438714195232 0.7334375527026 1.1767213240647 1.389997430121 1.0448495854292 1.4672145154349 1.07902378404 1.7361037048039 0.77619802091481 1.4243541044373 1.5079951070781 1.2189806544433 1.343484583989 1.5876318447699 1.5704227946569 1.4682784250635 1.1011075298721 0.62183891736566 0.75497317322994 0.63126827894776 1.5339961991799 1.5754660063317 1.5901249263265 1.0704906024905 1.6776839511812 1.5526567644603 1.1041794749209 1.5929913718786 1.4441271867093 1.6039591264071 0.51208016996144 0.96371963715077 1.6066111099256 1.2703875935677 0.9154612905739 1.310160472211 1.351456035802 1.061518259468 1.2776430183825 1.5382474444308 1.5090502727472 1.2038785625717 1.8693518556408 1.8295833676413 1.0874089440098 1.3911766399558 0.7263278172184 1.3403485337481 0.67039671852676 1.6474659659934 -0.20039830243821 0.67994505050901 1.5374531630839 -0.27002744357356 1.6699546195325 0.70807335833124 1.2879800255557 1.3159026737869 1.4341007555046 0.81910179272946 1.4088417249758 0.47517086349709 1.2492518672289 1.5743731722637 1.2718311967241 1.5512122912073 1.5145644953674 0.97264806213745 0.80519872839332 0.43623358927554 0.78275404400406 0.54743288785886 1.8407770868686 0.4536360975623 0.92342802599967 1.5280309686168 1.2959170112709 1.5460128643593 1.7480989992438 1.565728216207 1.6025543659373 1.2388473955244 1.3940736543023 1.5199876836916 1.541539769701 1.6910403345023 0.55692709410568 1.5821096295674 1.5714845933813 1.176075687709 1.1504764914355 1.6595350745041 1.9099181387908 1.6022866566416 1.7227712581773 0.66561248318402 1.2389876789144 1.8117289243254 1.6128641845979 1.2894042100888 1.6885341336005 1.0247566284381 1.3768232886027 0.4156590872455 1.7327765988709 1.3034547776773 0.68362868430141 1.4668859757052 1.5242398680486 1.4153356806077 -0.153685593709 1.2812619286681 1.5814232075744 1.8725881407404 0.32779101937338 1.7744193878021 0.81507675059618 0.22025047275262 1.2096064846651 -0.45887539923117 1.7110925039891 1.9187147131912 1.4292157716016 1.0044629647659 1.5139894817469 1.73430665004 0.3963755099509 1.5862261361251 1.4914930128839 0.2265049927506 1.4487899329174 1.3508748317294 1.642070922319 0.95561095274002 0.53256478536931 1.4364624996854 0.61789898626252 1.2618503140263 1.8760077715413 1.3597662403308 1.4976628393434 1.3248704283542 1.6194003009014 0.35534703213672 0.3985197028091 0.97989539693855 2.01125187695 1.1219552714774 0.62529192185885 1.5309103070185 1.5781497189924 1.0560435079719 1.36181063211 1.2447570726462 1.347008002108 1.5778360751388 1.4825016420883 0.7449064475236 1.2921829989208 1.338939387279 1.6178437754735 1.8872726887984 0.60453078897959 0.88331416467972 0.4798395756529 1.5194301892633 1.3207844978799 0.79994549324573 0.98862510390388 1.7702638063486 0.50045288591813 1.1884268990692 1.0602255412997 1.2869325269359 1.7453212764721 1.2417322546529 1.1521388196427 1.7945096532794 1.8868664167739 1.5378822792545 1.7418042964323 1.6121801588821 1.2382372925839 0.7902091420803 0.75142027721621 1.48874888364 1.0668197457424 1.189358615207 1.4922385105192 0.76377581893244 1.651377604295 -0.14596997707478 1.8067325103859 1.6101382483984 1.3607137173725 0.53799979381202 0.61032481657297 1.7628078409862 -0.022987501941905 1.1517980532789 1.3149026681849 0.61009691028047 1.1573696488854 1.8576109013761 1.8098610807931 1.5064907698431 0.67138326918689 1.7159179417318 1.7405896500031 0.32356017823169 0.91538563808051 1.6407317554905 1.0116293144056 1.5521066549412 1.5482427046457 0.93985609868608 1.3770995184881 1.235135659135 0.73835089604299 0.64706209021931 0.62373891932707 1.7717730909566 1.8494316594294 2.4805913798525 1.5652505478917 0.88461479295702 1.4289847953776 1.4878232814561 0.93491401709324 1.5113776278208 1.7164622558391 0.50418246179386 1.7467679819231 0.86770068774765 1.7439789236191 1.5396709333601 0.75790667348581 1.118080512291 1.5110516480208 1.4050648162645 1.2394335292951 0.8941799460503 1.6534854011779 1.8151466582708 0.85297438689237 1.6963360383919 1.7489119054807 0.46656440821026 1.9821945749789 1.4210292881614 1.1853662110563 1.068724283782 1.1228842526128 1.5789009291525 1.475075273603 1.7139115581124 0.88552563231947 1.7758247285905 1.296801408301 1.43093160965 1.3319255000601 1.0387393091311 0.65636773948767 1.9001764514011 1.820416343556 1.4380839178534 1.9198671600882 1.0627662517806 1.0331034643958 1.5138140754347 1.4988917193024 1.3557492202062 1.3574958140573 1.5018715069964 1.0495233248946 1.8041803768325 1.8588945654637 1.4076456993963 1.0439654297931 0.8019108647604 1.4191199230047 1.2633103536749 0.31971977231776 1.5633622477514 1.72355101666 1.2850127433124 1.8631450775341 1.3554089720411 1.0728487467965 1.8840129906012 1.519616282382 0.61948097700912 0.73458848168643 1.2867551594509 1.8334171906493 1.1823395028793 1.0311289333776 1.5291962831503 1.3176771880869 1.7190877583601 1.5914787070302 1.2204678355087 1.3546817307456 1.7369606656657 0.8889477993741 1.5973744810235 1.6321449414756 1.8805402988065 1.4869631419295 1.2748154286355 1.7757649416111 1.7485338568757 1.8098568490005 1.5168339577361 1.4604802691798 1.4843201004158 1.6040197504392 1.4746778807701 0.93104690432615 0.035566828470721 0.89044072585967 0.78410761468479 0.76797487782154 1.5820088938122 1.2417402052541 1.7714001285823 1.2393803225638 1.5289718992009 1.2721519079849 0.60561587854274 1.7694573282313 1.5502340214182 1.6382713863267 -0.37876932914119 1.8528029270891 1.6136148445775 1.0368892590836 1.8364206127356 1.1966598689489 0.99515433818694 1.7853258188428 1.3017366380004 0.60022745442954 1.4584743838456 1.1977272572327 1.0993235899219 1.786210150333 0.94361983373091 1.6150810942519 1.3206467814419 1.3398554399459 0.98392028571069 1.7750492736087 0.22430301841882 0.69614450199062 -0.49392558073907 1.3838236036515 1.4295252038418 0.78961359919269 1.0331105901597 1.5862556375605 1.6763611369244 1.4102093947283 1.6214224096096 0.88383463861302 0.86188825119347 1.8311658320774 1.7507054921571 1.4959161786437 1.5840455828644 1.4598445475383 1.4204865617191 0.60232730352166 1.383105149667 1.679794227966 -0.14739612781941 1.3391401724013 1.8826686316301 1.442606456697 1.4146595016941 1.2478910866688 0.87496977792503 0.45309267091007 1.5452458593706 0.75494415944058 1.3779195076843 1.3991519169207 1.5449916250493 1.6058196005404 1.7948994000294 1.8230081961546 0.31012678973675 1.4680758246354 1.1058767297437 0.43455461977354 1.8163540666304 -0.47946158019413 0.57745395717547 1.2737031677336 1.7134564663096 0.90121627278799 1.4958358321399 0.55780515413522 1.436777080945 1.0272154638407 1.2882482702668 0.9748156662105 1.0290521139803 1.8900804240627 1.4632317361598 0.73512931170628 -0.09420931587728 1.0695565286946 1.3184220245479 1.5556047006345 1.5086078135973 0.95682052840781 1.8450454149548 1.3357301383237 1.5051279529804 1.4524109819605 0.73676811959794 1.5633752851914 1.5228523518967 1.94043580