# vtk DataFile Version 3.0
d-2__ created by libgimli-v1.5.0-1-g5991b6ac
ASCII
DATASET UNSTRUCTURED_GRID
POINTS 10201 double
0	-10	0
0.5	-10	0
0.5	-9.9	0
0	-9.9	0
1	-10	0
1	-9.9	0
1.5	-10	0
1.5	-9.9	0
2	-10	0
2	-9.9	0
2.5	-10	0
2.5	-9.9	0
3	-10	0
3	-9.9	0
3.5	-10	0
3.5	-9.9	0
4	-10	0
4	-9.9	0
4.5	-10	0
4.5	-9.9	0
5	-10	0
5	-9.9	0
5.5	-10	0
5.5	-9.9	0
6	-10	0
6	-9.9	0
6.5	-10	0
6.5	-9.9	0
7	-10	0
7	-9.9	0
7.5	-10	0
7.5	-9.9	0
8	-10	0
8	-9.9	0
8.5	-10	0
8.5	-9.9	0
9	-10	0
9	-9.9	0
9.5	-10	0
9.5	-9.9	0
10	-10	0
10	-9.9	0
10.5	-10	0
10.5	-9.9	0
11	-10	0
11	-9.9	0
11.5	-10	0
11.5	-9.9	0
12	-10	0
12	-9.9	0
12.5	-10	0
12.5	-9.9	0
13	-10	0
13	-9.9	0
13.5	-10	0
13.5	-9.9	0
14	-10	0
14	-9.9	0
14.5	-10	0
14.5	-9.9	0
15	-10	0
15	-9.9	0
15.5	-10	0
15.5	-9.9	0
16	-10	0
16	-9.9	0
16.5	-10	0
16.5	-9.9	0
17	-10	0
17	-9.9	0
17.5	-10	0
17.5	-9.9	0
18	-10	0
18	-9.9	0
18.5	-10	0
18.5	-9.9	0
19	-10	0
19	-9.9	0
19.5	-10	0
19.5	-9.9	0
20	-10	0
20	-9.9	0
20.5	-10	0
20.5	-9.9	0
21	-10	0
21	-9.9	0
21.5	-10	0
21.5	-9.9	0
22	-10	0
22	-9.9	0
22.5	-10	0
22.5	-9.9	0
23	-10	0
23	-9.9	0
23.5	-10	0
23.5	-9.9	0
24	-10	0
24	-9.9	0
24.5	-10	0
24.5	-9.9	0
25	-10	0
25	-9.9	0
25.5	-10	0
25.5	-9.9	0
26	-10	0
26	-9.9	0
26.5	-10	0
26.5	-9.9	0
27	-10	0
27	-9.9	0
27.5	-10	0
27.5	-9.9	0
28	-10	0
28	-9.9	0
28.5	-10	0
28.5	-9.9	0
29	-10	0
29	-9.9	0
29.5	-10	0
29.5	-9.9	0
30	-10	0
30	-9.9	0
30.5	-10	0
30.5	-9.9	0
31	-10	0
31	-9.9	0
31.5	-10	0
31.5	-9.9	0
32	-10	0
32	-9.9	0
32.5	-10	0
32.5	-9.9	0
33	-10	0
33	-9.9	0
33.5	-10	0
33.5	-9.9	0
34	-10	0
34	-9.9	0
34.5	-10	0
34.5	-9.9	0
35	-10	0
35	-9.9	0
35.5	-10	0
35.5	-9.9	0
36	-10	0
36	-9.9	0
36.5	-10	0
36.5	-9.9	0
37	-10	0
37	-9.9	0
37.5	-10	0
37.5	-9.9	0
38	-10	0
38	-9.9	0
38.5	-10	0
38.5	-9.9	0
39	-10	0
39	-9.9	0
39.5	-10	0
39.5	-9.9	0
40	-10	0
40	-9.9	0
40.5	-10	0
40.5	-9.9	0
41	-10	0
41	-9.9	0
41.5	-10	0
41.5	-9.9	0
42	-10	0
42	-9.9	0
42.5	-10	0
42.5	-9.9	0
43	-10	0
43	-9.9	0
43.5	-10	0
43.5	-9.9	0
44	-10	0
44	-9.9	0
44.5	-10	0
44.5	-9.9	0
45	-10	0
45	-9.9	0
45.5	-10	0
45.5	-9.9	0
46	-10	0
46	-9.9	0
46.5	-10	0
46.5	-9.9	0
47	-10	0
47	-9.9	0
47.5	-10	0
47.5	-9.9	0
48	-10	0
48	-9.9	0
48.5	-10	0
48.5	-9.9	0
49	-10	0
49	-9.9	0
49.5	-10	0
49.5	-9.9	0
50	-10	0
50	-9.9	0
0.5	-9.8	0
0	-9.8	0
1	-9.8	0
1.5	-9.8	0
2	-9.8	0
2.5	-9.8	0
3	-9.8	0
3.5	-9.8	0
4	-9.8	0
4.5	-9.8	0
5	-9.8	0
5.5	-9.8	0
6	-9.8	0
6.5	-9.8	0
7	-9.8	0
7.5	-9.8	0
8	-9.8	0
8.5	-9.8	0
9	-9.8	0
9.5	-9.8	0
10	-9.8	0
10.5	-9.8	0
11	-9.8	0
11.5	-9.8	0
12	-9.8	0
12.5	-9.8	0
13	-9.8	0
13.5	-9.8	0
14	-9.8	0
14.5	-9.8	0
15	-9.8	0
15.5	-9.8	0
16	-9.8	0
16.5	-9.8	0
17	-9.8	0
17.5	-9.8	0
18	-9.8	0
18.5	-9.8	0
19	-9.8	0
19.5	-9.8	0
20	-9.8	0
20.5	-9.8	0
21	-9.8	0
21.5	-9.8	0
22	-9.8	0
22.5	-9.8	0
23	-9.8	0
23.5	-9.8	0
24	-9.8	0
24.5	-9.8	0
25	-9.8	0
25.5	-9.8	0
26	-9.8	0
26.5	-9.8	0
27	-9.8	0
27.5	-9.8	0
28	-9.8	0
28.5	-9.8	0
29	-9.8	0
29.5	-9.8	0
30	-9.8	0
30.5	-9.8	0
31	-9.8	0
31.5	-9.8	0
32	-9.8	0
32.5	-9.8	0
33	-9.8	0
33.5	-9.8	0
34	-9.8	0
34.5	-9.8	0
35	-9.8	0
35.5	-9.8	0
36	-9.8	0
36.5	-9.8	0
37	-9.8	0
37.5	-9.8	0
38	-9.8	0
38.5	-9.8	0
39	-9.8	0
39.5	-9.8	0
40	-9.8	0
40.5	-9.8	0
41	-9.8	0
41.5	-9.8	0
42	-9.8	0
42.5	-9.8	0
43	-9.8	0
43.5	-9.8	0
44	-9.8	0
44.5	-9.8	0
45	-9.8	0
45.5	-9.8	0
46	-9.8	0
46.5	-9.8	0
47	-9.8	0
47.5	-9.8	0
48	-9.8	0
48.5	-9.8	0
49	-9.8	0
49.5	-9.8	0
50	-9.8	0
0.5	-9.7	0
0	-9.7	0
1	-9.7	0
1.5	-9.7	0
2	-9.7	0
2.5	-9.7	0
3	-9.7	0
3.5	-9.7	0
4	-9.7	0
4.5	-9.7	0
5	-9.7	0
5.5	-9.7	0
6	-9.7	0
6.5	-9.7	0
7	-9.7	0
7.5	-9.7	0
8	-9.7	0
8.5	-9.7	0
9	-9.7	0
9.5	-9.7	0
10	-9.7	0
10.5	-9.7	0
11	-9.7	0
11.5	-9.7	0
12	-9.7	0
12.5	-9.7	0
13	-9.7	0
13.5	-9.7	0
14	-9.7	0
14.5	-9.7	0
15	-9.7	0
15.5	-9.7	0
16	-9.7	0
16.5	-9.7	0
17	-9.7	0
17.5	-9.7	0
18	-9.7	0
18.5	-9.7	0
19	-9.7	0
19.5	-9.7	0
20	-9.7	0
20.5	-9.7	0
21	-9.7	0
21.5	-9.7	0
22	-9.7	0
22.5	-9.7	0
23	-9.7	0
23.5	-9.7	0
24	-9.7	0
24.5	-9.7	0
25	-9.7	0
25.5	-9.7	0
26	-9.7	0
26.5	-9.7	0
27	-9.7	0
27.5	-9.7	0
28	-9.7	0
28.5	-9.7	0
29	-9.7	0
29.5	-9.7	0
30	-9.7	0
30.5	-9.7	0
31	-9.7	0
31.5	-9.7	0
32	-9.7	0
32.5	-9.7	0
33	-9.7	0
33.5	-9.7	0
34	-9.7	0
34.5	-9.7	0
35	-9.7	0
35.5	-9.7	0
36	-9.7	0
36.5	-9.7	0
37	-9.7	0
37.5	-9.7	0
38	-9.7	0
38.5	-9.7	0
39	-9.7	0
39.5	-9.7	0
40	-9.7	0
40.5	-9.7	0
41	-9.7	0
41.5	-9.7	0
42	-9.7	0
42.5	-9.7	0
43	-9.7	0
43.5	-9.7	0
44	-9.7	0
44.5	-9.7	0
45	-9.7	0
45.5	-9.7	0
46	-9.7	0
46.5	-9.7	0
47	-9.7	0
47.5	-9.7	0
48	-9.7	0
48.5	-9.7	0
49	-9.7	0
49.5	-9.7	0
50	-9.7	0
0.5	-9.6	0
0	-9.6	0
1	-9.6	0
1.5	-9.6	0
2	-9.6	0
2.5	-9.6	0
3	-9.6	0
3.5	-9.6	0
4	-9.6	0
4.5	-9.6	0
5	-9.6	0
5.5	-9.6	0
6	-9.6	0
6.5	-9.6	0
7	-9.6	0
7.5	-9.6	0
8	-9.6	0
8.5	-9.6	0
9	-9.6	0
9.5	-9.6	0
10	-9.6	0
10.5	-9.6	0
11	-9.6	0
11.5	-9.6	0
12	-9.6	0
12.5	-9.6	0
13	-9.6	0
13.5	-9.6	0
14	-9.6	0
14.5	-9.6	0
15	-9.6	0
15.5	-9.6	0
16	-9.6	0
16.5	-9.6	0
17	-9.6	0
17.5	-9.6	0
18	-9.6	0
18.5	-9.6	0
19	-9.6	0
19.5	-9.6	0
20	-9.6	0
20.5	-9.6	0
21	-9.6	0
21.5	-9.6	0
22	-9.6	0
22.5	-9.6	0
23	-9.6	0
23.5	-9.6	0
24	-9.6	0
24.5	-9.6	0
25	-9.6	0
25.5	-9.6	0
26	-9.6	0
26.5	-9.6	0
27	-9.6	0
27.5	-9.6	0
28	-9.6	0
28.5	-9.6	0
29	-9.6	0
29.5	-9.6	0
30	-9.6	0
30.5	-9.6	0
31	-9.6	0
31.5	-9.6	0
32	-9.6	0
32.5	-9.6	0
33	-9.6	0
33.5	-9.6	0
34	-9.6	0
34.5	-9.6	0
35	-9.6	0
35.5	-9.6	0
36	-9.6	0
36.5	-9.6	0
37	-9.6	0
37.5	-9.6	0
38	-9.6	0
38.5	-9.6	0
39	-9.6	0
39.5	-9.6	0
40	-9.6	0
40.5	-9.6	0
41	-9.6	0
41.5	-9.6	0
42	-9.6	0
42.5	-9.6	0
43	-9.6	0
43.5	-9.6	0
44	-9.6	0
44.5	-9.6	0
45	-9.6	0
45.5	-9.6	0
46	-9.6	0
46.5	-9.6	0
47	-9.6	0
47.5	-9.6	0
48	-9.6	0
48.5	-9.6	0
49	-9.6	0
49.5	-9.6	0
50	-9.6	0
0.5	-9.5	0
0	-9.5	0
1	-9.5	0
1.5	-9.5	0
2	-9.5	0
2.5	-9.5	0
3	-9.5	0
3.5	-9.5	0
4	-9.5	0
4.5	-9.5	0
5	-9.5	0
5.5	-9.5	0
6	-9.5	0
6.5	-9.5	0
7	-9.5	0
7.5	-9.5	0
8	-9.5	0
8.5	-9.5	0
9	-9.5	0
9.5	-9.5	0
10	-9.5	0
10.5	-9.5	0
11	-9.5	0
11.5	-9.5	0
12	-9.5	0
12.5	-9.5	0
13	-9.5	0
13.5	-9.5	0
14	-9.5	0
14.5	-9.5	0
15	-9.5	0
15.5	-9.5	0
16	-9.5	0
16.5	-9.5	0
17	-9.5	0
17.5	-9.5	0
18	-9.5	0
18.5	-9.5	0
19	-9.5	0
19.5	-9.5	0
20	-9.5	0
20.5	-9.5	0
21	-9.5	0
21.5	-9.5	0
22	-9.5	0
22.5	-9.5	0
23	-9.5	0
23.5	-9.5	0
24	-9.5	0
24.5	-9.5	0
25	-9.5	0
25.5	-9.5	0
26	-9.5	0
26.5	-9.5	0
27	-9.5	0
27.5	-9.5	0
28	-9.5	0
28.5	-9.5	0
29	-9.5	0
29.5	-9.5	0
30	-9.5	0
30.5	-9.5	0
31	-9.5	0
31.5	-9.5	0
32	-9.5	0
32.5	-9.5	0
33	-9.5	0
33.5	-9.5	0
34	-9.5	0
34.5	-9.5	0
35	-9.5	0
35.5	-9.5	0
36	-9.5	0
36.5	-9.5	0
37	-9.5	0
37.5	-9.5	0
38	-9.5	0
38.5	-9.5	0
39	-9.5	0
39.5	-9.5	0
40	-9.5	0
40.5	-9.5	0
41	-9.5	0
41.5	-9.5	0
42	-9.5	0
42.5	-9.5	0
43	-9.5	0
43.5	-9.5	0
44	-9.5	0
44.5	-9.5	0
45	-9.5	0
45.5	-9.5	0
46	-9.5	0
46.5	-9.5	0
47	-9.5	0
47.5	-9.5	0
48	-9.5	0
48.5	-9.5	0
49	-9.5	0
49.5	-9.5	0
50	-9.5	0
0.5	-9.4	0
0	-9.4	0
1	-9.4	0
1.5	-9.4	0
2	-9.4	0
2.5	-9.4	0
3	-9.4	0
3.5	-9.4	0
4	-9.4	0
4.5	-9.4	0
5	-9.4	0
5.5	-9.4	0
6	-9.4	0
6.5	-9.4	0
7	-9.4	0
7.5	-9.4	0
8	-9.4	0
8.5	-9.4	0
9	-9.4	0
9.5	-9.4	0
10	-9.4	0
10.5	-9.4	0
11	-9.4	0
11.5	-9.4	0
12	-9.4	0
12.5	-9.4	0
13	-9.4	0
13.5	-9.4	0
14	-9.4	0
14.5	-9.4	0
15	-9.4	0
15.5	-9.4	0
16	-9.4	0
16.5	-9.4	0
17	-9.4	0
17.5	-9.4	0
18	-9.4	0
18.5	-9.4	0
19	-9.4	0
19.5	-9.4	0
20	-9.4	0
20.5	-9.4	0
21	-9.4	0
21.5	-9.4	0
22	-9.4	0
22.5	-9.4	0
23	-9.4	0
23.5	-9.4	0
24	-9.4	0
24.5	-9.4	0
25	-9.4	0
25.5	-9.4	0
26	-9.4	0
26.5	-9.4	0
27	-9.4	0
27.5	-9.4	0
28	-9.4	0
28.5	-9.4	0
29	-9.4	0
29.5	-9.4	0
30	-9.4	0
30.5	-9.4	0
31	-9.4	0
31.5	-9.4	0
32	-9.4	0
32.5	-9.4	0
33	-9.4	0
33.5	-9.4	0
34	-9.4	0
34.5	-9.4	0
35	-9.4	0
35.5	-9.4	0
36	-9.4	0
36.5	-9.4	0
37	-9.4	0
37.5	-9.4	0
38	-9.4	0
38.5	-9.4	0
39	-9.4	0
39.5	-9.4	0
40	-9.4	0
40.5	-9.4	0
41	-9.4	0
41.5	-9.4	0
42	-9.4	0
42.5	-9.4	0
43	-9.4	0
43.5	-9.4	0
44	-9.4	0
44.5	-9.4	0
45	-9.4	0
45.5	-9.4	0
46	-9.4	0
46.5	-9.4	0
47	-9.4	0
47.5	-9.4	0
48	-9.4	0
48.5	-9.4	0
49	-9.4	0
49.5	-9.4	0
50	-9.4	0
0.5	-9.3	0
0	-9.3	0
1	-9.3	0
1.5	-9.3	0
2	-9.3	0
2.5	-9.3	0
3	-9.3	0
3.5	-9.3	0
4	-9.3	0
4.5	-9.3	0
5	-9.3	0
5.5	-9.3	0
6	-9.3	0
6.5	-9.3	0
7	-9.3	0
7.5	-9.3	0
8	-9.3	0
8.5	-9.3	0
9	-9.3	0
9.5	-9.3	0
10	-9.3	0
10.5	-9.3	0
11	-9.3	0
11.5	-9.3	0
12	-9.3	0
12.5	-9.3	0
13	-9.3	0
13.5	-9.3	0
14	-9.3	0
14.5	-9.3	0
15	-9.3	0
15.5	-9.3	0
16	-9.3	0
16.5	-9.3	0
17	-9.3	0
17.5	-9.3	0
18	-9.3	0
18.5	-9.3	0
19	-9.3	0
19.5	-9.3	0
20	-9.3	0
20.5	-9.3	0
21	-9.3	0
21.5	-9.3	0
22	-9.3	0
22.5	-9.3	0
23	-9.3	0
23.5	-9.3	0
24	-9.3	0
24.5	-9.3	0
25	-9.3	0
25.5	-9.3	0
26	-9.3	0
26.5	-9.3	0
27	-9.3	0
27.5	-9.3	0
28	-9.3	0
28.5	-9.3	0
29	-9.3	0
29.5	-9.3	0
30	-9.3	0
30.5	-9.3	0
31	-9.3	0
31.5	-9.3	0
32	-9.3	0
32.5	-9.3	0
33	-9.3	0
33.5	-9.3	0
34	-9.3	0
34.5	-9.3	0
35	-9.3	0
35.5	-9.3	0
36	-9.3	0
36.5	-9.3	0
37	-9.3	0
37.5	-9.3	0
38	-9.3	0
38.5	-9.3	0
39	-9.3	0
39.5	-9.3	0
40	-9.3	0
40.5	-9.3	0
41	-9.3	0
41.5	-9.3	0
42	-9.3	0
42.5	-9.3	0
43	-9.3	0
43.5	-9.3	0
44	-9.3	0
44.5	-9.3	0
45	-9.3	0
45.5	-9.3	0
46	-9.3	0
46.5	-9.3	0
47	-9.3	0
47.5	-9.3	0
48	-9.3	0
48.5	-9.3	0
49	-9.3	0
49.5	-9.3	0
50	-9.3	0
0.5	-9.2	0
0	-9.2	0
1	-9.2	0
1.5	-9.2	0
2	-9.2	0
2.5	-9.2	0
3	-9.2	0
3.5	-9.2	0
4	-9.2	0
4.5	-9.2	0
5	-9.2	0
5.5	-9.2	0
6	-9.2	0
6.5	-9.2	0
7	-9.2	0
7.5	-9.2	0
8	-9.2	0
8.5	-9.2	0
9	-9.2	0
9.5	-9.2	0
10	-9.2	0
10.5	-9.2	0
11	-9.2	0
11.5	-9.2	0
12	-9.2	0
12.5	-9.2	0
13	-9.2	0
13.5	-9.2	0
14	-9.2	0
14.5	-9.2	0
15	-9.2	0
15.5	-9.2	0
16	-9.2	0
16.5	-9.2	0
17	-9.2	0
17.5	-9.2	0
18	-9.2	0
18.5	-9.2	0
19	-9.2	0
19.5	-9.2	0
20	-9.2	0
20.5	-9.2	0
21	-9.2	0
21.5	-9.2	0
22	-9.2	0
22.5	-9.2	0
23	-9.2	0
23.5	-9.2	0
24	-9.2	0
24.5	-9.2	0
25	-9.2	0
25.5	-9.2	0
26	-9.2	0
26.5	-9.2	0
27	-9.2	0
27.5	-9.2	0
28	-9.2	0
28.5	-9.2	0
29	-9.2	0
29.5	-9.2	0
30	-9.2	0
30.5	-9.2	0
31	-9.2	0
31.5	-9.2	0
32	-9.2	0
32.5	-9.2	0
33	-9.2	0
33.5	-9.2	0
34	-9.2	0
34.5	-9.2	0
35	-9.2	0
35.5	-9.2	0
36	-9.2	0
36.5	-9.2	0
37	-9.2	0
37.5	-9.2	0
38	-9.2	0
38.5	-9.2	0
39	-9.2	0
39.5	-9.2	0
40	-9.2	0
40.5	-9.2	0
41	-9.2	0
41.5	-9.2	0
42	-9.2	0
42.5	-9.2	0
43	-9.2	0
43.5	-9.2	0
44	-9.2	0
44.5	-9.2	0
45	-9.2	0
45.5	-9.2	0
46	-9.2	0
46.5	-9.2	0
47	-9.2	0
47.5	-9.2	0
48	-9.2	0
48.5	-9.2	0
49	-9.2	0
49.5	-9.2	0
50	-9.2	0
0.5	-9.1	0
0	-9.1	0
1	-9.1	0
1.5	-9.1	0
2	-9.1	0
2.5	-9.1	0
3	-9.1	0
3.5	-9.1	0
4	-9.1	0
4.5	-9.1	0
5	-9.1	0
5.5	-9.1	0
6	-9.1	0
6.5	-9.1	0
7	-9.1	0
7.5	-9.1	0
[...]
CELL_DATA 10000
SCALARS Coverage double 1
LOOKUP_TABLE default
-0.21533380937777 -0.19220359931234 -0.17068643982577 -0.15070926462593 -0.13220910109478 -0.11496987124423 -0.098919095902586 -0.084045429365398 -0.070286104128806 -0.057543320703248 -0.045765324495341 -0.035032427935475 -0.025287123235078 -0.016396537626892 -0.0082982206879395 -0.00071795259129451 0.0059949907330994 0.012291799296118 0.01780897236753 0.023142873751188 0.02775779016915 0.032330458117112 0.036313778996426 0.040105578565779 0.043786428035026 0.046945737705622 0.05022396747958 0.053023288805506 0.055793802510231 0.058245316761051 0.060760484625254 0.063036079874617 0.065375801562996 0.067760345776249 0.069655884064754 0.071669820725647 0.07375922021114 0.075570980866861 0.077440324790726 0.079324834117265 0.080786365464941 0.082267628781359 0.083488499679805 0.084631883814073 0.085459453489775 0.086279665655131 0.086485168396994 0.086585147724343 0.086213218236916 0.085642442032853 0.084841406994152 0.084044186688649 0.083047009489782 0.082333214771925 0.081498970027823 0.080770547011156 0.079862341725387 0.078949345232605 0.077782883095508 0.076499308121394 0.07513716276102 0.073435417800498 0.071710529712179 0.069714586150776 0.067222012070232 0.06438423593922 0.061252246288438 0.057492604623832 0.053414631196266 0.048765876767032 0.043745047591709 0.038088534473465 0.031984616408847 0.02558514809568 0.01862768181611 0.011294078749815 0.0035105800221992 -0.0044635612799294 -0.013071666654688 -0.021802505325821 -0.031105572164526 -0.040686099646151 -0.050880996985315 -0.061356225605431 -0.072460091220037 -0.083967926483897 -0.095785481626051 -0.10809406939051 -0.12085372051972 -0.13435085528655 -0.14850454184422 -0.16307799083444 -0.1781336731416 -0.19386809218565 -0.21046760381529 -0.22786528226129 -0.24599890774284 -0.26489830656993 -0.28490214290066 -0.30654990608182 -0.20389811239903 -0.18056708098568 -0.15887254235842 -0.13873793481631 -0.12008711773502 -0.10271065639468 -0.086521354036171 -0.071533871925632 -0.057652533396467 -0.044795878081501 -0.032935507562501 -0.022095935817104 -0.012255534485614 -0.0032850561999036 0.0048899970225251 0.012486487443114 0.019310984452108 0.025600479819204 0.031247197494296 0.036557069416316 0.04129026020306 0.04582886975624 0.049901379294246 0.053733848638214 0.05739956464075 0.060665509555201 0.06389082084802 0.066763350204882 0.069531739100647 0.072008078864637 0.07447888461657 0.076820371745024 0.079178132604242 0.081490758079866 0.083465629617947 0.085468429294692 0.087515480242583 0.089392368069734 0.091264017772896 0.093089080562851 0.09462178826583 0.096081214090203 0.097305607707332 0.098394160941084 0.099282268538703 0.10003728592361 0.1003088991702 0.10034873276844 0.10003203007803 0.099455580110081 0.098667682524905 0.097842649732844 0.096921515272769 0.096162151622789 0.095401676430624 0.094694111391572 0.093847138076193 0.092929810475345 0.091849766667483 0.09061469583442 0.0892467559248 0.087627149315403 0.085952797600576 0.083952210144337 0.081529485593708 0.078722756193419 0.075561051692983 0.071843052985377 0.067770544517747 0.063133363964427 0.058065599848974 0.052407756517773 0.046283211392739 0.039789649462863 0.032833396945511 0.025451642561674 0.017631091448344 0.0095294635540575 0.00093810626458117 -0.0079442404306574 -0.017256520454551 -0.026944814209672 -0.037204213278937 -0.047826314463302 -0.058979517710665 -0.070596262541309 -0.082582076776131 -0.094960536327753 -0.10784632968906 -0.12149861805285 -0.13578729062898 -0.15052858618011 -0.16574816234699 -0.18164564747887 -0.19841182420547 -0.2159889978027 -0.23430028498824 -0.25338103842112 -0.27356371742439 -0.29543643774892 -0.19235658643139 -0.1688273766049 -0.14695413107971 -0.1266600425604 -0.10785658213356 -0.090341545338275 -0.074018212498027 -0.058907978079208 -0.044907466986459 -0.031937689813686 -0.019985132608457 -0.0090495584948079 0.00088091466497685 0.0099284309189984 0.018176001977122 0.025812744360709 0.032723083146687 0.039029526785068 0.044775694043589 0.050097308122918 0.054911739717963 0.059452635105542 0.063591935458201 0.067456931407756 0.071136807398988 0.074468662126174 0.077684962618189 0.080603086140799 0.083368662787961 0.085871351721221 0.08832331581647 0.09070201465992 0.093074780121522 0.095350094740386 0.097366968515958 0.099361582896495 0.10139780555972 0.1033064642293 0.10517526362243 0.10697735240235 0.10854876187995 0.10999531158465 0.11121958288213 0.11227169935851 0.11318768791396 0.11391370086963 0.11422253868803 0.11423043039528 0.11394713738587 0.11336674001077 0.11259171061038 0.11175905796311 0.11089355810065 0.11010941295142 0.10940782748472 0.10872881033994 0.10793549838717 0.10703861570938 0.10602147627291 0.10483392515298 0.10348679346467 0.10193440754041 0.10030595414324 0.098322947621477 0.095952584365976 0.093173672127079 0.090007770808131 0.08632800975506 0.082256960101812 0.077626590184128 0.072525544286569 0.066850162804181 0.060700088798158 0.054146101924817 0.047153691823872 0.039732475591478 0.031867836693662 0.023668900733007 0.015049909823805 0.0060619502028384 -0.0032976918624991 -0.013078802211584 -0.023399080730295 -0.034151325767279 -0.045386865898745 -0.057105627374662 -0.069233548875702 -0.08170791414562 -0.094715190326901 -0.10851270217022 -0.12294465224957 -0.1378458859599 -0.15322819599555 -0.16929159519053 -0.18622750908365 -0.20398404833662 -0.2224759602433 -0.24173560391693 -0.26210019758711 -0.28419868499654 -0.18071401877754 -0.15698475394516 -0.1349308365447 -0.11447524760566 -0.09551845030837 -0.077860243918022 -0.061406981605546 -0.046170969171179 -0.032053025670606 -0.01897147204261 -0.0069186922955375 0.0041045350475478 0.014124856464507 0.023247108129026 0.031565820014606 0.039252444570689 0.04623702473502 0.052579810796928 0.058404852011096 0.063753989041073 0.068635610297589 0.073194706910623 0.07738705879679 0.081286227196961 0.084988783537339 0.088369829100112 0.091596290380811 0.094543564844121 0.097306784607692 0.099838720879966 0.10228230287251 0.10468516335892 0.10706405967556 0.10932596250604 0.1113628101436 0.11335293837118 0.11539157823912 0.11731716289892 0.11918671701929 0.12097483724032 0.12257067209975 0.12400556749734 0.12523140434501 0.12625758369059 0.1271868108962 0.1278989669326 0.12822735146311 0.12822224678287 0.12795835006467 0.12737863755193 0.12661280526055 0.1257832634157 0.12496136166989 0.12417481201528 0.12351660269614 0.12287399233039 0.12212456178642 0.12126564636626 0.12030138936806 0.11915957158279 0.11785226626373 0.11635918141191 0.11477259416053 0.1128238628052 0.11049395869552 0.10773969922208 0.10458811443949 0.10093510579994 0.096862384706172 0.092243637777324 0.087116373560668 0.081413158527712 0.075240916785132 0.068640100103655 0.06159928807999 0.054142994540441 0.046225743077788 0.03794166359086 0.029272452329234 0.020203183610017 0.01077483611329 0.00091719904269244 -0.0094755672667916 -0.020343518625044 -0.03167404663342 -0.043489225525671 -0.055750247857049 -0.068336259241407 -0.081457589615331 -0.095398280421822 -0.10997808228309 -0.12503488973792 -0.14057702783675 -0.15680313533479 -0.17391597987825 -0.19185192285764 -0.21052450393166 -0.22996631753981 -0.25051220361862 -0.27282769602756 -0.16896831917011 -0.14503852754167 -0.12280204282973 -0.10218302751918 -0.083072144109336 -0.065265200598611 -0.048686358512322 -0.033323974072352 -0.019089093223746 -0.0058955422712484 0.0062630920378405 0.017366403850058 0.027476321529794 0.036672215152135 0.045061891097493 0.052807161257409 0.059856426582428 0.066242784965692 0.072139425269066 0.077524568944192 0.082467487102797 0.087051480972507 0.091292295711906 0.095223547809332 0.098954857809354 0.10237489137008 0.10562105603885 0.10858937059146 0.11135091839362 0.1139085371429 0.11635466793761 0.11877370808704 0.12115799738931 0.12341674000574 0.12546379691093 0.12744603244278 0.12949505805444 0.13143231134246 0.13330183580583 0.1350898655947 0.13669716680948 0.13811770598537 0.13934415894597 0.14035510853933 0.14128788562568 0.14200159508958 0.14233454974942 0.14232016094559 0.14207152279898 0.14150103828669 0.14074219170293 0.13992223871485 0.13913303821401 0.13835154428598 0.13772685090706 0.13712753916957 0.13641766079364 0.13560419947907 0.13468956931019 0.13360623652102 0.13234621913419 0.13090308900818 0.12935916566727 0.12745135766058 0.12515709874107 0.1224310763221 0.11929930381912 0.11566849836225 0.11159544668383 0.10698398495101 0.10183182326345 0.096102721063528 0.089903108157822 0.083260122789818 0.076170625060075 0.068677261922551 0.060707698750775 0.052340886598302 0.043613721441846 0.034473879626084 0.024974923639342 0.015047484051536 0.0045651025167378 -0.0064111414200957 -0.017836800038367 -0.029747525500776 -0.042135509058252 -0.054842182479983 -0.068079032632512 -0.082152994066187 -0.096881057763715 -0.11209445493516 -0.12779559797475 -0.14418966296938 -0.16147377421859 -0.17959134195583 -0.19844571758587 -0.21807422096498 -0.23880102630415 -0.26133737670526 -0.15713472034063 -0.1329892916259 -0.11056751350218 -0.089780699141808 -0.070516080045509 -0.052560992064061 -0.035851833787102 -0.020366283586098 -0.0060129411990549 0.0072916755240838 0.019554790969578 0.030737943850278 0.040937756929364 0.05020910249733 0.058667085949776 0.066474164404598 0.073581805927864 0.080020731713953 0.085984693240606 0.091407101744797 0.096403650453365 0.10101944779173 0.10530017108206 0.10927067100368 0.11302851875773 0.11648593703344 0.11975640375764 0.1227458346868 0.12550705456217 0.12807973984746 0.13053830636411 0.13296831094499 0.13536640034007 0.13761887098666 0.13967027938833 0.14164480183085 0.14371279376641 0.14565821083731 0.14753234110586 0.14931238141135 0.15093120884675 0.15234063765227 0.1535670752501 0.15456473115749 0.15550016913465 0.15621483959523 0.15654616148228 0.15653268919568 0.15629709960421 0.15573213022891 0.15498235233317 0.1541745407776 0.15340762485706 0.15264499701767 0.15204970050498 0.15149241503211 0.15082355459001 0.15006010428622 0.14919692744535 0.14817281407429 0.14696123410006 0.14557602844066 0.14407320610131 0.14220862279571 0.13994551006233 0.13725093230013 0.13414387281133 0.13054176640976 0.12646394218168 0.12185548691791 0.11667716768945 0.11091991414821 0.10468698045852 0.098014032866491 0.090878925200303 0.083346284016443 0.075311700866289 0.06687557472662 0.058083117689617 0.048879819688073 0.0393032086876 0.029304442422038 0.018737106802436 0.0076457228542606 -0.0038712067687086 -0.01588278180373 -0.028392890865303 -0.041218665585948 -0.05457105009693 -0.068782228961535 -0.083656007691443 -0.099028077965909 -0.1148898906536 -0.13144859828216 -0.1489065511996 -0.1672085934878 -0.18624297475606 -0.20605790776631 -0.22696429108974 -0.24971061263079 -0.14518867155806 -0.12083579148626 -0.098225750647306 -0.077269714183997 -0.057846527619586 -0.03974749722311 -0.022904184698399 -0.0072969028629474 0.0071774696283666 0.020589790654251 0.032959591429056 0.04422188891238 0.054509940724414 0.063854684164377 0.072382904380355 0.08025160840374 0.087414719285811 0.093912259751214 0.099937722954271 0.10540104657177 0.11044423602586 0.11509583215731 0.11941851769339 0.12342740059885 0.12721689509206 0.13071011113063 0.13400800089415 0.13701812489832 0.1397773957588 0.14236333058093 0.14483840972438 0.14727375992929 0.14968350212571 0.15193382401267 0.15398246756843 0.15596228586037 0.15803926258955 0.15999404010738 0.16186956231156 0.16364875849726 0.16527033061363 0.16668091817905 0.16790167654945 0.16888716920186 0.169820424456 0.17053961740379 0.17086699020521 0.17086641481224 0.17063528273899 0.17007748839984 0.16933661678569 0.16854317606592 0.16779272178651 0.16705417537382 0.16648273568385 0.16596857729563 0.16534238984172 0.16463638495539 0.16382209200088 0.16286146480135 0.16170350206711 0.16036912013763 0.15890934580532 0.15709018116274 0.1548615476728 0.15220643633823 0.1491249785128 0.14554556750115 0.14146298270053 0.13685424059434 0.13165642957084 0.12586733613902 0.11960683817724 0.1128996402077 0.10572298711921 0.098141013975672 0.090047087913921 0.081540506696255 0.072687025404194 0.063416543173924 0.053761744860838 0.043690802647922 0.033037392631413 0.021833710721236 0.010222964962797 -0.0018937416816043 -0.014516143650463 -0.027462899683234 -0.040933906872788 -0.055283426120189 -0.070305678707241 -0.085835523163805 -0.10186082261085 -0.11858170161993 -0.13621349627712 -0.15470535910395 -0.17392039402583 -0.19391911857109 -0.21500339074928 -0.2379637212468 -0.13314808905906 -0.10857852475043 -0.085775139778584 -0.064650037244838 -0.045063714500349 -0.026823695605719 -0.009843438769758 0.0058859960332013 0.020480280365878 0.03400283613247 0.04647742917942 0.057817823315518 0.068191830868608 0.07761293234315 0.086209493471072 0.09414198570622 0.10136324678959 0.10791772271769 0.1139975930923 0.11950602687411 0.1245970445005 0.12928886409111 0.13364617837561 0.13769948786656 0.14151861897029 0.14504970268003 0.14837214521214 0.15139889383102 0.15416140033161 0.15676893965263 0.15925460019298 0.1616908203723 0.16410788292046 0.16636302121108 0.16841049350479 0.17039740757536 0.17247911271166 0.17444307009541 0.1763221047033 0.17810034729567 0.17972053009069 0.1811347239382 0.18234535414517 0.18331979150372 0.1842508954351 0.18497395035589 0.1852996766993 0.1853132617525 0.18508189218594 0.18453397198371 0.18380293065325 0.1830229287484 0.18228831693138 0.18157949252132 0.18103216484117 0.18056016954327 0.17997878326911 0.17932801419308 0.17856406838267 0.17767846364495 0.17657219693147 0.17529418337354 0.17387362702783 0.17210385903194 0.16990734475891 0.16729526708568 0.16424238331792 0.16068220038697 0.15659575629214 0.15198713813097 0.14676148020639 0.14095725472992 0.13466012315517 0.12791881897101 0.12070249414358 0.11306752467134 0.10491791468093 0.096343205379699 0.087423507766715 0.078084793916865 0.068348406549369 0.058210366184517 0.047464508098282 0.036154588291613 0.024448413776363 0.012228920628864 -0.00050366508766881 -0.013571963534067 -0.027167766306556 -0.041654569969475 -0.056829013644256 -0.072513075733514 -0.088704051797485 -0.10558405946586 -0.12339861705805 -0.14207858995597 -0.16147589785115 -0.18165650727972 -0.20291951007351 -0.22609079227052 -0.12099458078405 -0.096216513313394 -0.073217222703748 -0.051921241290036 -0.032170795573314 -0.013780476940317 0.0033287612956644 0.019185737070655 0.033896425883345 0.047531760389129 0.060108261960275 0.071530361037104 0.081983789314635 0.091483852115039 0.10014793027304 0.10814671575454 0.11542486056924 0.12203942789326 0.12816649783238 0.13372513712884 0.13886330433926 0.1435980180939 0.14798772674879 0.1520874595249 0.1559361852123 0.15950292920202 0.16285058301407 0.16589528722557 0.16866113283488 0.17129495910241 0.17378838421561 0.17622633246386 0.17864688151027 0.18090701005716 0.18295980086909 0.18495248386624 0.18704012486766 0.18901182851107 0.19089347337113 0.19266815323932 0.1942927212948 0.19570673493249 0.19690661463759 0.19786911497959 0.19879657622359 0.19952083313935 0.19985553521783 0.19987454862856 0.19964118586093 0.19910348091964 0.19838530996888 0.1976172149745 0.19689866594916 0.19622019466509 0.19569457707513 0.19526439523383 0.19473728629151 0.19413513163112 0.1934269565767 0.1926195422608 0.19156570220641 0.19034746720427 0.18897261859796 0.18725034283083 0.18508725450215 0.18251408034127 0.17948728191492 0.17594925692794 0.17186951293101 0.16725028091965 0.16199749911014 0.15618316134723 0.14983830433614 0.14306742720142 0.1358128627074 0.12812751880041 0.11991612166149 0.11127897439404 0.10228507429074 0.092883709034249 0.083063434280397 0.072862667986084 0.062027201902875 0.050615486122617 0.038803908633951 0.026486377469531 0.013637895977525 0.00045453125879227 -0.013273631911284 -0.027897511884589 -0.043223095278402 -0.059062248163848 -0.07541693920678 -0.092455329436404 -0.11046038497564 -0.12932777781634 -0.14890996920647 -0.16927379514573 -0.19071309786597 -0.21408829178102 -0.10873691120845 -0.083749903306398 -0.060551613758148 -0.039082865032847 -0.019167366815402 -0.00062303814178513 0.016615736478801 0.032600818919296 0.047426041991223 0.061176618319211 0.073852596539325 0.085358291908721 0.095889246022905 0.10546636197908 0.11419944968364 0.12226506493975 0.12960211212144 0.13627801312491 0.14244981422964 0.1480594710568 0.15324498820937 0.15802180969523 0.16244396470453 0.16659595882854 0.17047027207468 0.17407900543783 0.1774447487722 0.1805098866056 0.18327998042352 0.18594167564241 0.18843821806714 0.19087997789552 0.1933004066101 0.19556796248171 0.19762523237429 0.19962992031716 0.20171508794478 0.20369720132467 0.20557745479965 0.20735170179284 0.20897543401893 0.2103924845249 0.21158425542553 0.21253592334455 0.21345864260101 0.21417712442851 0.21452396442511 0.21455074951175 0.21431822370167 0.21378592144627 0.21308571974601 0.21232609261086 0.21162823540446 0.21098041934958 0.21046851754834 0.21008463800504 0.20962133105022 0.20906401763504 0.20841325517904 0.20768446379436 0.20668189831008 0.20552426965717 0.20420901540317 0.20252936315323 0.20039763733404 0.19786702675057 0.1948612248293 0.19134866596214 0.18728014039457 0.18265044153499 0.17737426620904 0.17153536393393 0.16514578457197 0.15834518958638 0.15106429665231 0.14332010376782 0.13504944001073 0.12634318250501 0.11727434414962 0.1078093662681 0.097918113324325 0.0876401142452 0.076719401137076 0.065210220524908 0.053288738456326 0.040873385734544 0.0279162539341 0.014607931070624 0.00075034777934679 -0.014010311218265 -0.029487355983569 -0.045487237316588 -0.061997170502164 -0.079200623010777 -0.097395037351982 -0.11645293500992 -0.13622089872394 -0.15677189557897 -0.17838573296803 -0.20196839085956 -0.096377942619387 -0.071177349779476 -0.047777140377618 -0.026131090139182 -0.0060521815847433 0.012647641105834 0.030024804820298 0.04613050005152 0.061071943034808 0.07493643809693 0.087711411305069 0.099299185133267 0.10991190568325 0.11956273211803 0.12836908281661 0.13649744808516 0.14389333510691 0.15063764910875 0.15685019092885 0.16251227924055 0.16774291578784 0.17256657209484 0.17701839584023 0.1812212457644 0.18511898649357 0.18877193705032 0.19215991000315 0.19523906353438 0.19801753504832 0.20071098600997 0.20320888347272 0.20565492363799 0.20807611239768 0.21034646715717 0.21241414016941 0.21442866624407 0.21650818515554 0.2184988293025 0.22037888300574 0.22215588646167 0.22377897779304 0.22520017515972 0.22637972516732 0.22732349327071 0.22823349125078 0.22895367268431 0.22931085115229 0.22934921525757 0.22910893576775 0.22858908675635 0.22789915413375 0.2271552593883 0.22647351550999 0.22586037891889 0.22536046145488 0.22502521409602 0.22462694427996 0.22411562670761 0.22353247393538 0.22287126768701 0.22192719297418 0.22082376943179 0.21957135808422 0.2179422892386 0.21584564021299 0.21335206532979 0.2103733012681 0.20687728556317 0.20282423124794 0.19818332591162 0.1928907465182 0.18702149442299 0.18059360750425 0.17375095307716 0.1664498626818 0.15864442865973 0.15031665870064 0.14153613252794 0.13238991518165 0.12286202101045 0.11290643796101 0.10254244883338 0.091549585270836 0.079935914710518 0.067899921800283 0.055391160333079 0.04232573888513 0.028892761857139 0.014909084125014 1.3278514963413e-05 -0.015616216643582 -0.031784640159446 -0.048451400780341 -0.065819284236663 -0.084199688619781 -0.10345758200272 -0.12341212091721 -0.14414846233535 -0.16593644700189 -0.18970882975337 -0.08394061724414 -0.058499424650304 -0.034893124444415 -0.013067785260222 0.0071761594285066 0.026031979663628 0.043552431218131 0.059778181942246 0.074841741169896 0.088815405913752 0.10168554379818 0.11336007517614 0.12405117498016 0.1337754944513 0.1426586654363 0.15084630687935 0.15830265119855 0.16511738754063 0.17136603786988 0.1770852868845 0.18235682712629 0.18722807114398 0.191711982615 0.19596180224194 0.19988733725024 0.20358457222377 0.20699615163017 0.21008686301413 0.21288045818767 0.21559686112721 0.21810722714375