# vtk DataFile Version 3.0
d-3__ created by libgimli-v1.5.0-1-g5991b6ac
ASCII
DATASET UNSTRUCTURED_GRID
POINTS 1483 double
3.3802423101098	12.435481574566	-0.57001420684378
3	12	-0.2857142857143
3.4959596309848	11.998298039034	0
3.2490070092203	12.168560129388	0
6.0395510135596	13.367156253372	-1.2757999763971
6.5930002103947	12.023472734859	-1.2922192071349
5.4998599382803	12.552571297657	-0.59337769664261
5.29662096318	11.932351047571	-1.5392209346082
5.6153020589615	9.1440579133635	-1.0774777831171
5.7237069713611	8.5589744845549	-0.30827017969781
5	9	-0.2857142857143
5.3151026533923	8.4249591108801	-0.38240156963578
2.3178923476779	4.1926464382665	0
2.5373292327812	4.4716333182052	-0.48281884804687
2.3342974478463	4.0018571812202	-0.30572640106363
1.9994701911036	4.4258543307655	0
4.8968211033092	12.507755029533	0
5	12	-0.2857142857143
5.2932790228536	12.494788035524	0
0	0	-0.2857142857143
0.54768630893449	0.55020446432687	-0.60775225926193
-0.16846798780902	-0.24002860812406	-0.65332445545953
-0.28063481777066	0.41453578455018	-0.44890469943706
7.7	3.575	0
7.3102059000399	3.7470939102263	0
7.7	3.6732286664853	-0.53772532608145
7.3176226410905	3.2857280588852	0
-0.7	-0.10798167686939	-0.47517111104905
-0.7	-0.57707899562378	-1.1376990549501
-0.7	-0.61986630133594	-0.43486724047509
6.3962361866998	10.611290418241	-1.3182185489848
6.565939673393	9.5694509864085	-0.57379796778735
7.1295911592009	10.496363016677	-0.48219980545192
6.3839624611364	10.341052129245	-0.35036617584397
7.7	14.3	-2.5
6.7623683783591	12.987112326146	-2.233077027779
7.7	13.059020885286	-3.3539705522597
7.7	13.327367479896	-2.129915020979
1	6	0
1	6	-0.2857142857143
0.93236760237426	6.49128333619	0
1.3454573625665	6.353105459937	0
2	5	-0.2857142857143
2.1684298754346	4.7403793023811	0
3.0226729813355	8.4836106439452	0
2.5164096947204	8.910651700233	-0.41109082170818
3.4071201441719	8.4167381876838	-0.59109415332551
2.5374808587914	8.1383747261781	-0.35604109466584
6.2778911301719	14.3	-0.61136458754231
6.2225356773765	13.691717475418	0
6.5208076177088	13.495118289851	-0.49928801204061
6.7358646795693	14.3	-0.39005656748015
5.7965188279432	13.281940723964	0
5.5320359851605	12.925291312368	0
5.353113789845	13.264183036004	0
5.5919457801018	13.101154188917	-0.33537516396337
7	10	-0.2857142857143
7	10	0
6.5010306427949	10.010760669106	0
6.8196744207924	9.5136576917357	0
7.7	1.1375	0
7.7	1.6430719769933	-0.42557297445049
7.1939383721229	1.4724531054162	0
7.7	1.625	0
6.3572581294301	1.4772201134971	-0.96507376287322
6.5574763981385	0.84898833643366	-0.48332647821142
6.7774291048203	1.7003141153393	-0.4123635555875
6.1433933962903	1.4220674799247	-0.28622251631329
-0.7	9.1984657118068	-1.9278839451739
0.33291529395702	8.3305676904572	-1.2970017952003
-0.7	8.1442617177323	-1.0898260028896
-0.7	7.644268062563	-2.0766032868031
4.508194357046	8.6258793740749	-0.60770874662543
5.0095189690676	8.5009469809039	0
4.7609249278557	8.7686419230913	0
6.2306672701993	2.67753718	0
6.6360398560532	2.4670661479797	-0.44686919005428
6.4910302172834	2.4939022421641	0
6.1550873755842	2.4572757142813	-0.33684154297057
1	1	0
1	1	-0.2857142857143
1.4901571161019	0.99574153349402	0
1.1736530561382	0.72346383359363	0
2	4	-0.2857142857143
2	4	0
1.6440539242474	4.1532454240512	0
7.7	6.9501255673919	-0.74418826283982
7	7	-0.2857142857143
6.7521552376889	6.497772044976	-0.66059363300197
7.7	6.3887218416049	-0.46884913673037
5.9482896260331	7.5800048202495	0
6	8	-0.2857142857143
6.3095291646476	7.6896230263426	0
6.1432247512519	7.3579252770212	-0.41388970597853
3.501272057481	12.437082442362	0
3.3297831413816	12.805427976196	0
3.6823393063421	12.851671876304	0
1.3671388209093	10.633374397873	-0.4152980605108
0.95248763025238	9.835503527633	-1.7808732395437
2.3518021577517	10.495200039554	-0.50930668321109
1.5373497846005	10.021005779616	-0.41781002197689
6.2054585007625	14.3	-1.3884356875417
6.9442913034148	14.3	-0.89278753613404
1	8	-0.2857142857143
0.54167473049383	7.7707286368021	-0.37916050195481
0.44975345341211	8.3808810318019	-0.31136669048163
1.022076618805	8.4121844676845	-0.45670843222423
0.89173681858685	4.6122796653579	0
1	5	-0.2857142857143
1.2386083631299	4.6841794176855	0
1.3923592539172	4.7130963353432	-0.25978315417498
6.4242299347383	5.6840176993625	-0.35514079575845
6	5	-0.2857142857143
6.3424541740313	5.2754910113697	0
6.0447933133998	5.5049876953384	0
5	2	0
5	2	-0.2857142857143
5.5190673049038	1.9208326821789	0
5.2306444928855	1.6547875838902	0
5	13	-0.2857142857143
5.257359886178	13.540476325965	-0.63012071696907
0	6	0
0	6	-0.2857142857143
0.066757795936057	6.5008369551487	0
0.29243888553297	6.1743316976873	0
7	9	-0.2857142857143
6.5033796411008	8.9981073418213	0
6.5607922823332	8.4440251373986	-0.63122800754088
6.811726958696	8.7028726276344	0
7	5	0
7	5	-0.2857142857143
6.4986646723997	4.9192017057136	0
6.7141996182955	5.3303468264748	0
7.7	9.5988491781319	-7.4736716195817
3.1507199964473	10.394874003632	-10
4.8663216648816	7.3792654266676	-10
5.1015502438684	11.553440122249	-6.405163284031
7	7	0
6.9589015254993	7.4884372736447	0
6.761634669635	7.2408783569561	0
6.0574437090791	0.20878539066113	-1.8779478182653
4.9838025543493	-1.3	-2.1179854334408
6.0308685444023	-1.3	-3.5425074203685
6.440522236286	-1.3	-2.0103523001383
3	2	0
3	2	-0.2857142857143
3.0105846506	1.4855923993349	0
2.6480485575569	1.6700894103009	0
5.0527203000088	13.535479310798	-1.5373151531841
5.0246691847863	14.3	-1.036131499603
4.1300067609037	14.3	-1.2024507502556
4.4744197407865	13.547407617085	-0.63586628370479
2.5813517996865	9.6286485974984	-1.0236151505326
2.2955236368793	9.5881134365907	-0.29154811067367
3	10	-0.2857142857143
6.4248505083522	12.522044346884	-0.42559946143008
6.465073985677	12.51782996062	0
6.1644652963082	12.36965297069	0
6.3832046574853	12.135664356038	0
2.9908655166747	12.498069465114	0
1.984703560175	7.5906357794687	-0.50777967523709
1.0508409188237	7.354634772545	-0.95680796450018
1.4515039911109	6.5829264157992	-0.56173008002516
1.3866216751759	7.5118935788728	-0.35488362790971
2.45	14.3	0
2.2168273415577	13.627179222019	0
2.4554693735383	13.497784276817	-0.39727655195048
3.032551925238	13.762466584345	0
6	11	-0.2857142857143
6	11	0
6.4843452951013	10.966514281357	0
6.2440599782187	11.234710090977	0
5.5	-0.5576923076923	0
5.247952850371	-0.29481663567353	0
5.5452342683804	-0.096294524539033	-0.49623355575102
5.1016398375367	-0.61489919294387	-0.38960315167385
2.3232496140345	4.0110297188843	-1.3835068702753
1.6586320571652	5.8268322896535	-1.5213554090482
0.71002746520551	3.976198472286	-1.505315421377
1.3296414347056	4.9089994064226	-0.82629172929831
5.6	14.3	0
4.6510156691765	14.3	-0.56274723813486
-0.090060726359069	5.5363033123106	-0.44581840212762
0	5	-0.2857142857143
-0.38456492153953	5.1805342841446	0
-0.7	5.0205501441189	-0.32507149572551
3	13	-0.2857142857143
5.1848675157348	3.2965660830064	0
5.4046165570399	2.9501485228537	-0.43988698776777
5.486289771732	3.4981838484395	0
5.4682750147717	3.0660382780841	0
0	8	0
0	8	-0.2857142857143
0.5178658825659	8.020802151125	0
0.25864598874121	7.6639427314904	0
6.7098208972434	7.2950601162224	-1.3269022195366
7.7	7.949747446039	-0.91833665053736
7.1577047253729	7.4844276204668	-0.64272934527953
4.5892004575887	3.5369189576522	-0.55981654583505
4.4420188491858	3.4660037233365	0
4.711527897636	3.7375259681419	0
4.3494632088922	3.8023533541114	0
4	6	-0.2857142857143
4	6	0
3.9913416390327	5.4988534517732	0
4.5093195747582	5.724109532591	0
1.4	14.3	0
1.5	13.55769230769	0
0.89284349994875	13.714781914708	0
1.2292962491126	13.670420041977	-0.37788942865261
4	9	-0.2857142857143
4	9	0
4.5502440226935	9.051086551406	0
4.2963154051231	9.3907765114078	0
4.5321110402369	7.5028925212181	-0.60552533206341
3.5085861108931	7.3893844432383	-0.64873189634878
4.0050480592533	7.4977657988521	0
4	8	-0.2857142857143
5.8961095330637	-1.3	-1.0125722125019
4.8982045728458	-1.3	-0.82217786726149
5.2296982103621	-0.31621891710017	-1.0679345669244
4.9010483556055	1.478997710586	0
4.5631533182214	1.9074133665015	-0.41231302454656
5.0320642355688	1.4518180616801	-0.36509190625555
3.5357179442866	0.46434418042464	-0.60031716899974
3.9407498163335	-0.4411178910574	-1.1087857494349
3.2826824657074	-0.47747544834602	-0.50866572047373
2.802260468126	-0.22902113419037	-1.4542342115515
1	13	0
1	13	-0.2857142857143
1.1191337005982	13.329221525091	0
1.4884720276527	13.02962190928	0
-0.21681247778723	8.5792000107362	0
-0.35118339610893	9.0917088673227	0
-0.7	9.0968147603684	-0.35256881313688
-0.7	8.9375	0
0.51662331659314	-0.40156299802931	-0.67799391089861
0.13474046208011	-1.3	-0.85683826964205
-0.16941603187845	-0.57512411281067	-1.4019543009948
6	13	-0.2857142857143
6	13	0
5.8068477026831	12.499749736815	0
6.1890713266052	12.67695534294	0
2.5984255358496	5.4578875982232	-0.67264342113488
2.2172109403706	5.4325217687574	0
2.4824672258873	4.9705265694472	0
2.6598112065826	5.3330483814808	0
-0.7	0.5146532048839	-0.51418317722913
-0.7	1.0492756199945	-0.88024243711367
-0.37698118088761	0.89350663208132	-0.33360419980628
-0.25096134668857	0.95145340086689	-0.90448711690516
6	2	-0.2857142857143
5.4002158317804	1.7678073061348	-0.50898482673054
5.8183999242367	2.5164331321023	-1.0840550371572
-0.13917028340788	5.5182991349521	0
0.31578338747353	5.7567158690792	0
6	12	0
6	12	-0.2857142857143
5.513035862904	11.994753403328	0
1.5285536174902	4.2362319729344	-0.43851980589517
0.57100063419133	12.499134596467	-0.56842257570583
1.2565986295401	13.42724014175	-1.149557674079
1.4486633887383	12.69302170761	-0.31714242590465
6.65	-1.3	0
6.903739311401	-1.3	-1.0953527719967
6.3980205255852	-0.38130956989248	-0.5855507841991
7.2175457166608	-0.5710098692386	-0.51938212652516
3	7	-0.2857142857143
3.5055774955602	6.7395375676091	-1.4094768265058
2.383927159844	7.4535505157878	-1.0620490471275
1	4	-0.2857142857143
1	4	0
1.2222221827385	4.2954008280594	0
0.82345085295407	4.2815033897546	0
5.6	-1.3	0
5.790373644402	-0.65252487431205	-0.38521635467031
[...]
CELL_DATA 5483
SCALARS Coverage double 1
LOOKUP_TABLE default
1.5195096373867 0.7611255694796 1.4187322849236 1.5860271386792 1.4553479025158 0.8949319892027 1.1552452496569 0.68683628810394 1.1266857221839 0.22548315910884 1.877418203637 1.686799074834 1.5133977843064 0.7324358328964 1.2561640820051 1.8000575394484 1.007463618757 1.1622003576415 0.63767557120014 1.6650902710359 1.4324197388656 1.7227975676446 1.9207107702965 1.0912167256836 1.6080410536811 1.4056364875689 1.2487566753466 0.59502193342353 1.4189541173821 1.6833736878785 1.5890764353018 1.7292825618346 1.2198945488762 1.8131009477409 1.4925782406019 1.77850715242 -0.35501240477115 1.811434912818 0.35455946832907 1.7456338203726 0.63440708785687 1.3843403834987 1.3966584292893 1.4776855159296 1.3324945322618 0.89709463996223 1.8354372871773 1.1144596381707 0.97496404056832 0.5845762475854 0.70163677972466 1.2992540888253 1.3930559256064 1.5346800567047 1.7148685418953 0.97965076453462 1.5368083331269 1.9251614242592 0.86216348922774 1.8506752528667 1.5405398265723 0.7156042480091 1.4233812967986 1.5374435793721 0.82667737420838 1.6092978774623 1.1915726631872 0.66403427022263 1.7168750779962 1.6010516380463 0.84701164954064 1.0997173396114 1.8174889538362 1.7002555386432 1.5587842754903 1.0386423664873 0.69456819861603 1.2958330984058 1.9488221856178 0.71652201320444 1.1737622578858 0.82921158733177 1.5107865159376 1.2190149058957 1.5117435687521 1.0142868329451 0.63184548126556 1.8240416665554 1.7793241981677 1.5632761113111 1.2073616992282 1.4338341992113 1.291442708751 1.2268315567007 1.4685519531297 1.6347588392203 1.5986070021543 0.98329353038382 1.653313978496 1.7139856912532 1.3091449987256 1.8070145351832 0.98971332341878 1.6038519736351 1.1572443347916 1.5790734011421 0.39082907035298 1.1615642126563 1.8372124599475 1.9161295718529 1.7616208699187 1.293725893605 1.4888062056123 1.5560249031958 1.170363282745 0.75168417369535 1.0236713488658 1.0574974169972 1.5770677580508 1.2165548143024 0.9743957538713 1.6283070726794 1.2648995052802 0.45275084208656 1.3219840770557 1.7913568260634 1.0820092416048 1.8038278389493 1.340569526763 1.5560268225316 1.5176393153466 -0.17076087595325 1.1028369778681 1.4358697591425 0.83623866142239 1.6047991779704 -0.34832927093308 1.3834695410786 1.3824274208151 1.8785069416502 0.60238191682229 0.19302984931846 1.8027441056488 1.6985347615462 1.5461323158012 1.4319215093107 0.89216618412124 0.81474935579609 0.97608891524443 0.58954667330088 0.43795113767733 1.8719550676916 0.81438063744095 1.2173841395535 1.4142994469456 1.6451953016593 1.5289409467186 1.0605961891088 1.7412742628032 0.8497224859963 1.415581427917 0.79254894925772 1.029888913993 1.6009073677045 1.884796918543 1.6691563770709 0.60520222646014 1.8652387876986 1.4588074944493 1.7938884497912 1.6000020008569 1.1874179922886 1.3330695442661 1.8540384527262 -0.010010386707798 1.8811678580223 1.9254624579259 1.7818737749922 1.6908510361951 0.19133019553987 1.5674416773649 0.41906027483543 1.1349523654074 -0.054688087477402 1.2285578365008 1.9095773151757 1.4106881256484 1.5795236559227 1.8407079637743 1.3451281324473 1.8829214664364 1.3441767327454 0.73222420689659 1.6216394617869 1.3054432545326 1.0902222172132 1.6561083750108 1.5512688902858 1.4171642728956 1.8685625295433 0.66816727020198 1.9564520370779 1.5190349646625 1.5136042010815 1.9587324228106 1.69903667869 1.6786812725124 1.4856765807529 1.0963539856133 -0.40100979320088 1.3875551731868 1.0899451090338 1.1928210884341 1.9043948424065 1.8795878753532 1.8948203450792 1.8259488048292 1.6027023165959 0.87506111486394 0.8685924702642 1.3935489963847 1.7497985073943 0.57019971619068 1.9085171250484 0.76008786136193 1.7124155187308 1.6066750415996 0.89782915602565 1.9257248235015 1.2160560964105 0.92395131905348 0.88570607662637 -0.10980078509203 1.8762602502205 1.5187549906625 1.1914254710889 0.567561521542 1.7686921097238 1.7827011161948 1.555130762757 1.7804530462012 0.69843043382068 1.5969062739616 0.98466611559573 1.593621779655 1.8576007167085 1.3638823650095 1.5469427060859 0.60024964080629 1.6212640197788 0.70866795625987 1.6568541312703 0.47429418950256 0.23295587188449 0.066598103451553 0.45603022317984 0.89149823149195 1.8809974615 1.3268335121976 1.8854315982506 1.1114024556915 1.1065347309372 1.5996862613739 1.3644977562151 1.9197574254683 1.8439486745335 1.4678061450859 1.8583112015185 1.5727175521948 0.78689029004758 1.8647962553043 1.908109742836 1.557839790809 1.4365586379049 1.8659301416997 1.5501979417782 1.8710969255314 1.5992001760849 1.6187152575407 1.7365376979807 1.6680986462099 1.9698044389274 1.452452340288 0.54912046570788 0.51103012377199 1.2953566636134 0.99135431867516 1.6035258318136 1.7486523245238 1.3150924681293 1.5436446536285 1.8554298824675 1.7068235734358 0.64241084234931 1.508339125285 1.7087399149564 0.74653953738241 0.38334463637905 0.86477139114941 0.5012885356664 0.46625236853771 1.5997705636543 1.4017334524644 1.0821015300998 0.83083983044219 1.1405836964246 1.6615170695385 1.3210007709496 1.5499325304534 1.1275950358003 0.75183740905025 1.6026030875247 1.3028105576417 1.2614293437102 0.67612374825708 1.2147333233637 1.5384560158502 1.1111538124335 1.4587408568593 1.2085286008693 1.8355308181138 1.6186184173689 1.5487394664439 1.4380567064323 1.9296783415489 1.2817919808122 1.7099180668182 1.5879376649762 0.48311697157533 -0.61968324301487 1.6474114522384 1.2371972657816 0.77703229179857 1.5647054368824 1.5537924193267 1.8312418894408 1.9143678396492 1.0046863237597 -0.53870543359249 0.87861671837121 1.420906021062 1.2335945709396 -0.23598233740837 1.0960298364178 1.0675708031483 1.435233431355 0.94321316389619 1.6005678011989 1.4335129551315 1.2623209317429 1.5527445682094 1.7482316111379 1.7707048236915 0.64242064384496 1.8962783445326 1.0236885452213 0.16712714367083 1.3287767994491 1.6854497720522 0.52669422359422 1.3135687972133 1.3874034570696 0.76203687365063 1.3971087193499 1.748564906675 1.488342221164 0.90678838403151 1.7568502152666 1.6902302424556 1.2946387439923 1.32814686551 0.99264688409995 1.5223052888696 0.306177002772 0.61574563459457 1.1608288600463 1.3049608193649 1.5398362614258 0.77237375089885 0.48392246099729 1.8198649984763 1.8904289019838 1.9146869629757 1.6207292795745 1.3747957501865 1.8877322397245 1.8509715711525 0.59589292920681 0.85666896003919 1.5216566935107 1.0132669265577 -0.20868988343532 1.6189828547283 1.4387786159986 1.3974331554928 1.5982133411143 1.6386262034082 1.4895822956995 1.5043669487182 1.5645618226835 1.1110613250504 0.83412977895806 1.0413934679353 1.7074866382955 1.9862992379345 1.2550672633539 1.3703090981903 1.7239186033037 1.8505418701265 1.2913212362237 1.578725159466 1.5264871649158 0.74181260331343 1.858687952199 1.4698462626898 1.4511254444143 0.99293393419856 1.5781214391902 1.8495218846471 -0.34181171441952 1.6045212475879 1.5267678630082 0.56729224854572 1.4276067335975 1.3810467010274 1.0554552230099 0.21905307610411 0.18309217750164 1.6151940913422 0.31816840326222 1.7149484317663 1.3676471253387 1.7964952833314 0.91748322788935 1.7564544525396 1.4734650374435 1.7519331689441 1.8132802362385 1.413887570804 1.2090834875657 1.4397921192764 1.584876623994 1.2923615574246 1.7700942864597 1.8496993341156 1.5718714595225 1.158700612147 1.2922177623165 1.2034362270676 1.2433785650509 0.97601881539839 0.69794644209485 1.4664894381735 1.5395347712129 1.8787210570575 1.4941090760284 1.9011526899247 1.4801625899073 1.69989986805 1.5030463271678 1.915508835864 1.3321099366886 1.0172130320553 1.6050914737659 1.9767562219391 1.5797200365342 0.88574762087548 1.3548583115285 -0.20609699652755 1.8577401355346 0.51389566937796 1.8348400583531 1.4962900021329 0.26587536612858 1.5932358040412 1.3198861710577 1.0655860475956 1.4926278410586 1.7141595097777 1.8771574954062 1.426190527252 1.5277394643547 1.8204913325307 1.6483070227058 1.3863614397859 0.72289900537117 1.6280521565276 1.5987048090278 1.5455579054815 0.67219228682794 0.57326764445846 1.4108960730518 1.2579157951705 1.5246202075902 0.84991282091493 1.8613995550883 1.6772595700577 0.81610672425306 1.9708902544968 1.4229151280545 1.0770203607282 0.63521540521567 0.85327616746623 1.0079337498731 0.56468474786923 1.7236685451178 1.6253872649362 0.033458580680198 1.3684733995181 1.1706855723358 1.4667824365379 1.3586561070129 1.5737859669187 1.5522393499153 1.841265058838 1.0580576583185 1.6188140363957 0.79014838008261 1.0844738966647 1.3957395007723 1.6310369245796 1.1065832869205 1.7947717005975 1.6370443910219 1.3385939735908 1.6122516313852 1.4432381807754 1.6763560993655 1.5821357560226 1.6376229576303 1.6091610453295 0.42659146473556 1.3280253001355 1.4454627707436 1.8501462784192 0.76502631342089 1.8239745142232 0.98149444615788 0.91537365367476 1.3629126706218 1.8226619923178 0.90087038275341 -0.64935023720095 1.7457574439627 1.5777471312092 1.2742933076466 1.7013509561504 1.5001299157119 0.67215428087781 0.84531522717401 1.8800621378927 0.9556290345106 1.602629288062 0.84971771557161 0.71845800974964 1.3919309923709 0.57413381961968 1.5851445882184 1.6245007263052 1.5446904579453 0.12334859224425 1.1374302012078 1.7190115354227 1.2295563929341 1.5544196691827 1.4414583836403 1.4211175898416 1.4594033838665 1.0938792420943 1.6094304290571 1.5811949169467 1.032812266708 1.0929545072935 0.28336282474718 1.9691683188835 0.96367412317181 0.33430933473 1.7541956635602 1.3449720552419 1.6431701921824 1.7105686757087 1.6872417042786 0.6596964470131 0.85637236582251 1.7000302449782 1.4027455547924 1.655284540618 1.1500467680474 1.5099909082571 0.86839806090367 1.0597060954055 0.91521734429593 1.5271628522241 1.2361670362392 0.70292273774015 1.901585854324 1.6776001289196 -0.54405387382531 0.14158326110707 0.90960840324653 1.7141732491425 1.9043381357834 1.5686955169605 1.8582540078725 1.2131353630353 1.4649813767438 0.64267206996792 1.6936578274976 0.41710369468326 2.0112466407701 1.1310794366337 1.6304009875135 0.90508365865246 1.6262483941581 1.5015344048501 1.3604229671504 1.4451042119227 0.42583564603225 1.8545445584639 1.144619124973 1.5125598766653 0.47738326773577 1.4847326732994 1.5948641493783 0.97317914538994 1.3747948949268 0.90626050298809 1.6959213744057 1.1287099939988 1.4856464039753 1.3926060869993 1.2776178559782 1.881176188471 0.75121677695745 0.43816469900214 -0.51768714748605 1.7927614686477 1.1536368332474 1.0626076393681 0.76375204224699 1.8430224784852 -0.18131078020322 1.6428397593002 1.6063222229409 1.1189145318894 1.0362596050324 1.7940369167577 1.9006404844782 1.5054126602141 1.5577738670101 1.7972493264328 1.651772147346 1.8633528561891 0.73332802852558 1.6546421946733 1.8649611668489 2.0644056553575 0.74853923460381 1.4805665966467 1.4133959806299 1.4756926163808 1.6301082302069 1.6357438225927 0.64228084222755 1.7395195604758 0.74689904478551 1.147219786217 1.4869364354194 1.9421223046425 1.190058335274 1.4225927920913 0.13792999688087 1.6811618672518 1.6661692920285 1.1848123717057 0.28808071560025 1.4075430409846 0.73884144298142 1.6651819855159 1.2273417642048 1.5173414653743 -0.32437920358145 1.5840247618038 0.66304664967561 0.78596097540669 1.867518231501 1.2846050783656 1.3727917208796 1.5449597918171 0.48320357848103 1.8879936490552 1.8280514127568 1.5312972294214 1.8436529264637 0.67920204777304 1.7218130916406 1.6550946531842 1.5372452152379 1.055491312381 1.8102891520239 0.51849529803567 1.2819398521536 1.4021866846917 1.2027952035466 0.81383242609808 1.7875685288701 1.569844875147 1.4214254364487 1.3921282445063 0.73501047956293 1.410440370479 -0.41733971413818 1.6138355623074 1.0193377031374 -0.24973907347504 0.27592610145178 1.5505547497537 1.8412146854475 1.3626621400996 1.3921812088113 1.9112657283169 1.5455980349332 1.0978314967849 1.6417495202121 0.94061613782035 1.2112141996868 1.4989749567888 0.98216516889672 0.35666052120289 1.727745084548 1.4595371880153 1.8744692250013 0.78607368651918 1.6948139372002 1.5595474291429 1.495305837891 1.5836737321647 1.5929238731376 0.24044264336151 1.1000751748023 1.4727058651187 1.0543748468502 1.2499011172903 1.1452857315733 1.7138125563642 1.0865965697812 1.2633430384791 1.4790829181527 1.8345365841668 1.76089827452 1.752413481353 0.6592562623815 1.8751784962622 1.4895618459851 0.78074663243064 1.2044024161938 1.5129771989765 1.7074558427405 1.128833311095 0.84012516248564 1.4602194494883 1.6233970996256 1.9393019939147 1.4430352002418 1.3178340288481 0.82938578397895 1.4196965785157 1.5999431703357 1.6029107158351 1.8013100698114 1.4515820557359 1.6160262623966 1.1710047979269 1.56128422864 1.611000692999 0.82795723432746 1.9205897799733 1.4035280686564 0.59020230359924 1.6120246049981 0.92092737114556 1.5490821115161 1.2490084159872 1.7389985163335 1.2056475112686 1.2313304510658 1.5747979161165 1.1647651848477 1.6773314489907 1.8706759653888 1.3441659611489 1.6622378062872 1.4637644310735 0.49250963044373 1.1593560746361 1.7968271411515 1.743918231927 0.24681678816502 1.6048249175864 -0.53472884511253 1.4199801846657 1.7416444067687 1.3137962058018 0.666894110758 1.7854642252905 -0.66168840221561 1.7758071149836 1.3394272636002 1.4382433264602 0.75200923763703 1.1885269508408 1.3971341606927 1.0749514772082 1.5027492711671 1.0848212926593 1.8302309085063 0.78286503268486 1.4315684155082 1.520180033394 1.2611656572376 1.3636821481761 1.5961229702517 1.5997767526619 1.4696344769253 1.1188837249112 0.61925907673195 0.75331633684129 0.66182854902797 1.5449677196642 1.5881465124461 1.6022680566685 1.0814158494819 1.6809828006085 1.6285932682786 1.1709892539065 1.6044114442987 1.4374035006569 1.6177022691792 0.5392680436078 0.97993193802195 1.6195089827779 1.2844613022049 0.97881968720619 1.3483900414203 1.3694751426017 1.0647591425161 1.2860845111003 1.5621168659967 1.5406875106157 1.2167951680493 1.8730590631022 1.838348135305 1.096477875246 1.6143106069459 0.73426394203978 1.3375329215387 0.66238002771607 1.6572858553303 -0.18954555003643 0.75034976730425 1.5526029655288 -0.24507298237304 1.7048835268286 0.73791371306915 1.2987129404373 1.3366359788399 1.4420710786011 0.82135190740598 1.4201384301106 0.50914960305136 1.2620375604931 1.5882215234385 1.2845339271862 1.5840119623812 1.5783914118415 1.019958729667 0.84258895170901 0.52084423443925 0.78971976501264 0.63780814733193 1.8866833715499 0.46178270864959 0.9379338157479 1.5385280770613 1.2990187076639 1.6397512460018 1.8396277471596 1.6574618885386 1.6374214561191 1.2531872895714 1.4027094203216 1.5355623123515 1.5548052377627 1.7158806125924 0.57017971654372 1.5923622318651 1.6133740520165 1.1803842801642 1.1788702524103 1.6773780025964 1.9569850052322 1.60790279176 1.7308533536467 0.65889956620794 1.245518305088 1.8236214439956 1.6712458502952 1.3158246292529 1.7406830078497 1.0421563449626 1.3847765112214 0.4586154548636 1.7288654107122 1.3350574481161 0.71013515082945 1.4570519679736 1.5382985190519 1.4411390167625 -0.14346017907631 1.2942281503018 1.5939154290943 1.9016589120755 0.35460709190282 1.7773904763247 0.86701851616907 0.22944624378329 1.2437114789219 -0.45130319856955 1.7314071648258 1.955748947538 1.4493457221048 1.0197852881611 1.5275162715985 1.8035460036732 0.44360040938604 1.6008205926061 1.512392027705 0.22861706933507 1.4876145383801 1.3630205784282 1.6550325419211 0.96445076653213 0.53909658827145 1.4465582865925 0.64612469958714 1.2722417008886 1.884410989199 1.3688550376545 1.5073453569903 1.3578561299043 1.6398784795879 0.37437410642144 0.41735134343872 0.9886795526742 2.0401334293703 1.1485131584464 0.62964810759995 1.5361133793563 1.5884974941286 1.0759567538306 1.3586929984633 1.2532323661809 1.3778659251994 1.6145465909777 1.4890579338078 0.76576798774341 1.2981228587847 1.3547924533337 1.6349765647615 1.9079507869596 0.62111090945524 1.0023919977165 0.5045168543042 1.5334392745836 1.3271139530032 0.84324237871577 1.0020813337165 1.7291159777354 0.52190454998963 1.2070710406152 1.0781275840342 1.2962309956317 1.7538536632115 1.246686162544 1.153456356949 1.8097775775247 1.9007831022583 1.5520755332154 1.7515972848415 1.6334839551718 1.2614972081729 0.79126083091321 0.76900891629064 1.4866562830922 1.082641892198 1.1940308603294 1.4996518373803 0.78884497033999 1.6761275184708 -0.11741197065637 1.8114232494438 1.6197793900172 1.3676355810283 0.56801779949626 0.70251947399898 1.7760734812492 -0.013506625095857 1.1642719555454 1.4107965923152 0.61418359591873 1.161120552121 1.9085372618504 1.8010966713176 1.5254182598756 0.69303770182147 1.7451483550742 1.7145963509412 0.37079687347454 0.93669469879963 1.6504730264568 1.025222912669 1.5619654807085 1.5570639244321 0.95834530370516 1.3853482189339 1.2477515753014 0.77273422403607 0.65204594808221 0.64278268180052 1.7738063045247 1.8639508367384 2.4871711167795 1.5957606053763 0.92031511517437 1.6769773109029 1.4873541765901 0.96852842014763 1.5207674038722 1.7217711076078 0.53603488526276 1.7233701836838 0.89566987759906 1.7543750842467 1.6132599388795 0.76209712475042 1.1762525118279 1.5225014511632 1.4178184094798 1.2537510519459 0.91147245187962 1.6625727136607 1.8237158440393 0.86752428590309 1.7131398842095 1.757156149616 0.51367032296001 1.9920013056547 1.4223825244265 1.1954968017702 1.171029569893 1.129186381245 1.5955841347952 1.486911388833 1.7179114344247 0.94537082224785 1.794808482968 1.3882953933083 1.4658327678109 1.343345607621 1.0524293941365 0.67390113811832 1.9129921191342 1.8830180417743 1.435791215917 1.92836301912 1.0763334793622 1.0420156582268 1.5415358171237 1.5077041800235 1.3617056612623 1.3708104722504 1.5140584732376 1.0535080618934 1.8479876536287 1.8709804538079 1.4176957796209 1.0736825953723 0.80822885910234 1.4247833327356 1.2727266006434 0.31130614058742 1.5753803141837 1.7334826804562 1.2966782968388 1.8529136243506 1.3534137357419 1.0958619362753 1.9057991970617 1.5463478013051 0.7345642853965 0.74092676333628 1.3018682123936 1.8166409187613 1.1906820859581 1.0926106182351 1.6090458325443 1.3216949027423 1.7398792562893 1.6306264878553 1.233510186204 1.4142351034453 1.7992893635643 0.90538932863333 1.5969713490637 1.6592019345267 1.8946069104151 1.5116916239832 1.2727715218033 1.7832844851485 1.773967467395 1.8192550571803 1.531784238935 1.4732313058152 1.5223319621898 1.6098447136276 1.484270999302 0.94740740210781 0.079660345735107 0.89121218155308 0.80519817248456 0.78104919954423 1.5836245516503 1.3028064995086 1.7727870883734 1.2587035568022 1.5355952112524 1.2865696654705 0.59893362705707 1.7751514180482 1.5673656631252 1.6570867153967 -0.33645153933345 1.8658747628217 1.6240339195327 1.0500534113848 1.8634606975358 1.1983221431226 1.219190781551 1.937751957393 1.314396442489 0.63364102451457 1.4658065856374 1.2150013685497 1.1082005975995 1.7956190235699 0.96361173348146 1.6558491397532 1.332373202654 1.347908521997 1.0506348372719 1.7895323879138 0.25318466508361 0.69987268350667 -0.50105029867417 1.3948150821469 1.4632258978483 0.80671972893005 1.0529303451665 1.5969069834967 1.7846653466971 1.4226756451383 1.6339963085456 0.90014109142761 0.92663949489327 1.8650005524323 1.7462486978986 1.5058164764721 1.6157677435748 1.4965809897195 1.4262783589477 0.60699393360222 1.3904490879102 1.6833403568785 -0.12826928005591 1.392160710377 1.8923485125316 1.4529070580241 1.4263886518451 1.2583724725261 0.89769550572222 0.45128601141363 1.5505183504288 0.82208914970003 1.3833893928468 1.4110634405884 1.567446252529 1.6400242882658 1.7830542151717 1.8154076675301 0.35375887610962 1.4750757976348 1.1209987179586 0.42885817805095 1.8252086662358 -0.4583619797029 0.59834652410389 1.3216805159997 1.7018059032281 1.0169454729427 1.5003174755232 0.57729354987021 1.4426569562227 1.0419539669158 1.3007193637559 0.98042331105317 1.0443435935688 1.9069455278168 1.5045704139755 0.73631420709713 -0.040753158913785 1.1029484436427 1.3348514043367 1.5799328822594 1.489471265404 0.97899220745889 1.8552457405965 1.3469235883793 1.5244840793516 1.4671696771187 0.78016428834293 1.5752212828332 1.5357935858084 1.968818123