# vtk DataFile Version 3.0
d-3__ created by libgimli-v1.5.0-1-g5991b6ac
ASCII
DATASET UNSTRUCTURED_GRID
POINTS 1483 double
3.3802423101098	12.435481574566	-0.57001420684378
3	12	-0.2857142857143
3.4959596309848	11.998298039034	0
3.2490070092203	12.168560129388	0
6.0395510135596	13.367156253372	-1.2757999763971
6.5930002103947	12.023472734859	-1.2922192071349
5.4998599382803	12.552571297657	-0.59337769664261
5.29662096318	11.932351047571	-1.5392209346082
5.6153020589615	9.1440579133635	-1.0774777831171
5.7237069713611	8.5589744845549	-0.30827017969781
5	9	-0.2857142857143
5.3151026533923	8.4249591108801	-0.38240156963578
2.3178923476779	4.1926464382665	0
2.5373292327812	4.4716333182052	-0.48281884804687
2.3342974478463	4.0018571812202	-0.30572640106363
1.9994701911036	4.4258543307655	0
4.8968211033092	12.507755029533	0
5	12	-0.2857142857143
5.2932790228536	12.494788035524	0
0	0	-0.2857142857143
0.54768630893449	0.55020446432687	-0.60775225926193
-0.16846798780902	-0.24002860812406	-0.65332445545953
-0.28063481777066	0.41453578455018	-0.44890469943706
7.7	3.575	0
7.3102059000399	3.7470939102263	0
7.7	3.6732286664853	-0.53772532608145
7.3176226410905	3.2857280588852	0
-0.7	-0.10798167686939	-0.47517111104905
-0.7	-0.57707899562378	-1.1376990549501
-0.7	-0.61986630133594	-0.43486724047509
6.3962361866998	10.611290418241	-1.3182185489848
6.565939673393	9.5694509864085	-0.57379796778735
7.1295911592009	10.496363016677	-0.48219980545192
6.3839624611364	10.341052129245	-0.35036617584397
7.7	14.3	-2.5
6.7623683783591	12.987112326146	-2.233077027779
7.7	13.059020885286	-3.3539705522597
7.7	13.327367479896	-2.129915020979
1	6	0
1	6	-0.2857142857143
0.93236760237426	6.49128333619	0
1.3454573625665	6.353105459937	0
2	5	-0.2857142857143
2.1684298754346	4.7403793023811	0
3.0226729813355	8.4836106439452	0
2.5164096947204	8.910651700233	-0.41109082170818
3.4071201441719	8.4167381876838	-0.59109415332551
2.5374808587914	8.1383747261781	-0.35604109466584
6.2778911301719	14.3	-0.61136458754231
6.2225356773765	13.691717475418	0
6.5208076177088	13.495118289851	-0.49928801204061
6.7358646795693	14.3	-0.39005656748015
5.7965188279432	13.281940723964	0
5.5320359851605	12.925291312368	0
5.353113789845	13.264183036004	0
5.5919457801018	13.101154188917	-0.33537516396337
7	10	-0.2857142857143
7	10	0
6.5010306427949	10.010760669106	0
6.8196744207924	9.5136576917357	0
7.7	1.1375	0
7.7	1.6430719769933	-0.42557297445049
7.1939383721229	1.4724531054162	0
7.7	1.625	0
6.3572581294301	1.4772201134971	-0.96507376287322
6.5574763981385	0.84898833643366	-0.48332647821142
6.7774291048203	1.7003141153393	-0.4123635555875
6.1433933962903	1.4220674799247	-0.28622251631329
-0.7	9.1984657118068	-1.9278839451739
0.33291529395702	8.3305676904572	-1.2970017952003
-0.7	8.1442617177323	-1.0898260028896
-0.7	7.644268062563	-2.0766032868031
4.508194357046	8.6258793740749	-0.60770874662543
5.0095189690676	8.5009469809039	0
4.7609249278557	8.7686419230913	0
6.2306672701993	2.67753718	0
6.6360398560532	2.4670661479797	-0.44686919005428
6.4910302172834	2.4939022421641	0
6.1550873755842	2.4572757142813	-0.33684154297057
1	1	0
1	1	-0.2857142857143
1.4901571161019	0.99574153349402	0
1.1736530561382	0.72346383359363	0
2	4	-0.2857142857143
2	4	0
1.6440539242474	4.1532454240512	0
7.7	6.9501255673919	-0.74418826283982
7	7	-0.2857142857143
6.7521552376889	6.497772044976	-0.66059363300197
7.7	6.3887218416049	-0.46884913673037
5.9482896260331	7.5800048202495	0
6	8	-0.2857142857143
6.3095291646476	7.6896230263426	0
6.1432247512519	7.3579252770212	-0.41388970597853
3.501272057481	12.437082442362	0
3.3297831413816	12.805427976196	0
3.6823393063421	12.851671876304	0
1.3671388209093	10.633374397873	-0.4152980605108
0.95248763025238	9.835503527633	-1.7808732395437
2.3518021577517	10.495200039554	-0.50930668321109
1.5373497846005	10.021005779616	-0.41781002197689
6.2054585007625	14.3	-1.3884356875417
6.9442913034148	14.3	-0.89278753613404
1	8	-0.2857142857143
0.54167473049383	7.7707286368021	-0.37916050195481
0.44975345341211	8.3808810318019	-0.31136669048163
1.022076618805	8.4121844676845	-0.45670843222423
0.89173681858685	4.6122796653579	0
1	5	-0.2857142857143
1.2386083631299	4.6841794176855	0
1.3923592539172	4.7130963353432	-0.25978315417498
6.4242299347383	5.6840176993625	-0.35514079575845
6	5	-0.2857142857143
6.3424541740313	5.2754910113697	0
6.0447933133998	5.5049876953384	0
5	2	0
5	2	-0.2857142857143
5.5190673049038	1.9208326821789	0
5.2306444928855	1.6547875838902	0
5	13	-0.2857142857143
5.257359886178	13.540476325965	-0.63012071696907
0	6	0
0	6	-0.2857142857143
0.066757795936057	6.5008369551487	0
0.29243888553297	6.1743316976873	0
7	9	-0.2857142857143
6.5033796411008	8.9981073418213	0
6.5607922823332	8.4440251373986	-0.63122800754088
6.811726958696	8.7028726276344	0
7	5	0
7	5	-0.2857142857143
6.4986646723997	4.9192017057136	0
6.7141996182955	5.3303468264748	0
7.7	9.5988491781319	-7.4736716195817
3.1507199964473	10.394874003632	-10
4.8663216648816	7.3792654266676	-10
5.1015502438684	11.553440122249	-6.405163284031
7	7	0
6.9589015254993	7.4884372736447	0
6.761634669635	7.2408783569561	0
6.0574437090791	0.20878539066113	-1.8779478182653
4.9838025543493	-1.3	-2.1179854334408
6.0308685444023	-1.3	-3.5425074203685
6.440522236286	-1.3	-2.0103523001383
3	2	0
3	2	-0.2857142857143
3.0105846506	1.4855923993349	0
2.6480485575569	1.6700894103009	0
5.0527203000088	13.535479310798	-1.5373151531841
5.0246691847863	14.3	-1.036131499603
4.1300067609037	14.3	-1.2024507502556
4.4744197407865	13.547407617085	-0.63586628370479
2.5813517996865	9.6286485974984	-1.0236151505326
2.2955236368793	9.5881134365907	-0.29154811067367
3	10	-0.2857142857143
6.4248505083522	12.522044346884	-0.42559946143008
6.465073985677	12.51782996062	0
6.1644652963082	12.36965297069	0
6.3832046574853	12.135664356038	0
2.9908655166747	12.498069465114	0
1.984703560175	7.5906357794687	-0.50777967523709
1.0508409188237	7.354634772545	-0.95680796450018
1.4515039911109	6.5829264157992	-0.56173008002516
1.3866216751759	7.5118935788728	-0.35488362790971
2.45	14.3	0
2.2168273415577	13.627179222019	0
2.4554693735383	13.497784276817	-0.39727655195048
3.032551925238	13.762466584345	0
6	11	-0.2857142857143
6	11	0
6.4843452951013	10.966514281357	0
6.2440599782187	11.234710090977	0
5.5	-0.5576923076923	0
5.247952850371	-0.29481663567353	0
5.5452342683804	-0.096294524539033	-0.49623355575102
5.1016398375367	-0.61489919294387	-0.38960315167385
2.3232496140345	4.0110297188843	-1.3835068702753
1.6586320571652	5.8268322896535	-1.5213554090482
0.71002746520551	3.976198472286	-1.505315421377
1.3296414347056	4.9089994064226	-0.82629172929831
5.6	14.3	0
4.6510156691765	14.3	-0.56274723813486
-0.090060726359069	5.5363033123106	-0.44581840212762
0	5	-0.2857142857143
-0.38456492153953	5.1805342841446	0
-0.7	5.0205501441189	-0.32507149572551
3	13	-0.2857142857143
5.1848675157348	3.2965660830064	0
5.4046165570399	2.9501485228537	-0.43988698776777
5.486289771732	3.4981838484395	0
5.4682750147717	3.0660382780841	0
0	8	0
0	8	-0.2857142857143
0.5178658825659	8.020802151125	0
0.25864598874121	7.6639427314904	0
6.7098208972434	7.2950601162224	-1.3269022195366
7.7	7.949747446039	-0.91833665053736
7.1577047253729	7.4844276204668	-0.64272934527953
4.5892004575887	3.5369189576522	-0.55981654583505
4.4420188491858	3.4660037233365	0
4.711527897636	3.7375259681419	0
4.3494632088922	3.8023533541114	0
4	6	-0.2857142857143
4	6	0
3.9913416390327	5.4988534517732	0
4.5093195747582	5.724109532591	0
1.4	14.3	0
1.5	13.55769230769	0
0.89284349994875	13.714781914708	0
1.2292962491126	13.670420041977	-0.37788942865261
4	9	-0.2857142857143
4	9	0
4.5502440226935	9.051086551406	0
4.2963154051231	9.3907765114078	0
4.5321110402369	7.5028925212181	-0.60552533206341
3.5085861108931	7.3893844432383	-0.64873189634878
4.0050480592533	7.4977657988521	0
4	8	-0.2857142857143
5.8961095330637	-1.3	-1.0125722125019
4.8982045728458	-1.3	-0.82217786726149
5.2296982103621	-0.31621891710017	-1.0679345669244
4.9010483556055	1.478997710586	0
4.5631533182214	1.9074133665015	-0.41231302454656
5.0320642355688	1.4518180616801	-0.36509190625555
3.5357179442866	0.46434418042464	-0.60031716899974
3.9407498163335	-0.4411178910574	-1.1087857494349
3.2826824657074	-0.47747544834602	-0.50866572047373
2.802260468126	-0.22902113419037	-1.4542342115515
1	13	0
1	13	-0.2857142857143
1.1191337005982	13.329221525091	0
1.4884720276527	13.02962190928	0
-0.21681247778723	8.5792000107362	0
-0.35118339610893	9.0917088673227	0
-0.7	9.0968147603684	-0.35256881313688
-0.7	8.9375	0
0.51662331659314	-0.40156299802931	-0.67799391089861
0.13474046208011	-1.3	-0.85683826964205
-0.16941603187845	-0.57512411281067	-1.4019543009948
6	13	-0.2857142857143
6	13	0
5.8068477026831	12.499749736815	0
6.1890713266052	12.67695534294	0
2.5984255358496	5.4578875982232	-0.67264342113488
2.2172109403706	5.4325217687574	0
2.4824672258873	4.9705265694472	0
2.6598112065826	5.3330483814808	0
-0.7	0.5146532048839	-0.51418317722913
-0.7	1.0492756199945	-0.88024243711367
-0.37698118088761	0.89350663208132	-0.33360419980628
-0.25096134668857	0.95145340086689	-0.90448711690516
6	2	-0.2857142857143
5.4002158317804	1.7678073061348	-0.50898482673054
5.8183999242367	2.5164331321023	-1.0840550371572
-0.13917028340788	5.5182991349521	0
0.31578338747353	5.7567158690792	0
6	12	0
6	12	-0.2857142857143
5.513035862904	11.994753403328	0
1.5285536174902	4.2362319729344	-0.43851980589517
0.57100063419133	12.499134596467	-0.56842257570583
1.2565986295401	13.42724014175	-1.149557674079
1.4486633887383	12.69302170761	-0.31714242590465
6.65	-1.3	0
6.903739311401	-1.3	-1.0953527719967
6.3980205255852	-0.38130956989248	-0.5855507841991
7.2175457166608	-0.5710098692386	-0.51938212652516
3	7	-0.2857142857143
3.5055774955602	6.7395375676091	-1.4094768265058
2.383927159844	7.4535505157878	-1.0620490471275
1	4	-0.2857142857143
1	4	0
1.2222221827385	4.2954008280594	0
0.82345085295407	4.2815033897546	0
5.6	-1.3	0
5.790373644402	-0.65252487431205	-0.38521635467031
[...]
CELL_DATA 5483
SCALARS Coverage double 1
LOOKUP_TABLE default
1.5092999199897 0.7569134787113 1.4159577258102 1.5697863939606 1.4512483863592 0.89211598166992 1.1518406287963 0.68774613703292 1.1264891752428 0.22267766580496 1.8694431213418 1.6765657000002 1.5005988937881 0.72948037587295 1.2510295300445 1.8022529078311 1.0038348947868 1.1583368027768 0.64249005624618 1.6598162947144 1.4250572745379 1.7111823379891 1.9070116428485 1.0890616544937 1.6081902942586 1.3964187855668 1.2303738679766 0.5920225944248 1.4111391643964 1.6744808873469 1.5933745276887 1.6907808234288 1.214570028124 1.8073623997315 1.4928829470865 1.7771921038036 -0.35995597020286 1.8117907519915 0.35785067786213 1.7030590355594 0.62957519903866 1.3687249294043 1.3933417982718 1.4682499792116 1.3272301536234 0.89130092786432 1.8331609431955 1.1049744515991 0.96895876070402 0.58184181466306 0.69744620632125 1.2919493816452 1.383676992735 1.5157096175833 1.6873140189382 0.97759295206357 1.495341491982 1.9281020393092 0.85929711263352 1.8412747920649 1.5319190890966 0.71347809010352 1.3870545182322 1.5279358947453 0.82365864690561 1.6054918531423 1.1595843843939 0.66540657416052 1.7131220049657 1.590664625069 0.84333860156424 1.0904531678875 1.8142699710276 1.6956254895385 1.5447123971646 1.0331945012718 0.68778683240964 1.288448729674 1.9383174486996 0.71072599831135 1.1631370609761 0.82543691804915 1.4868141880705 1.2051268374303 1.4983005317842 1.013967255868 0.62588115769417 1.781359929308 1.7793095990334 1.5459264447188 1.198748934555 1.3652821665596 1.2890539994581 1.2201767161239 1.445429677761 1.634081114326 1.5851589690569 0.9783641611116 1.6532484160237 1.7063867642675 1.298267569282 1.7963627870847 0.99171518102308 1.5980153834654 1.102985951293 1.5696133908392 0.3852809414683 1.1605435191429 1.8377241909693 1.8930568351798 1.6822828881357 1.2789572993374 1.4897542365661 1.5586203164779 1.163276832366 0.74624191134379 1.0195200527602 1.0526224849563 1.5651047871548 1.2151584430623 0.96878266631931 1.6277976851371 1.2648820628065 0.44915206228518 1.3275425341763 1.7874385549555 1.0746491417656 1.7974534745018 1.3335526874531 1.5561407706317 1.5070661782663 -0.16759720254342 1.0953146714666 1.4385119428232 0.8319437854829 1.5994111390231 -0.35100065372281 1.3747678314585 1.3715849867547 1.8682366425563 0.59776248837428 0.19739793362217 1.8029739204594 1.6962721895904 1.5390667291876 1.418277836488 0.87775304853219 0.80488359017076 0.95679141887868 0.5886488993716 0.43194809374726 1.8706329313216 0.81816269936873 1.1861221106962 1.413922086969 1.6293730161897 1.5247897197078 1.0538584283797 1.732706948287 0.84426126732385 1.38116908608 0.75630182944735 1.0304087814938 1.5939672965599 1.8748781451534 1.657883082178 0.60416112952999 1.8558150561961 1.4454047124644 1.7811853072981 1.584479839105 1.176323489877 1.3416389696695 1.8509264057548 -0.013265007397503 1.8661983556296 1.9168730502478 1.7769218110913 1.6872521065678 0.1884845016187 1.5607156914184 0.42718441055245 1.1276511905734 -0.049319308251904 1.2226893877564 1.8845889810445 1.398534334416 1.5783974660162 1.8293565542583 1.3368662631055 1.8772710674191 1.3376072590556 0.73265008706398 1.6096249317762 1.3002518883896 1.0875298737784 1.6458491095571 1.5489334780559 1.406194909367 1.8562416874097 0.67013558316404 1.9572578505787 1.476483403666 1.5130526624457 1.949644512642 1.6909676709802 1.6327885360893 1.4859565164609 1.0951721009983 -0.40052563645363 1.3683884397805 1.0793875977574 1.1857202711638 1.8979364738225 1.8655680151874 1.8858582030471 1.8134184798129 1.5896226611924 0.87066007046145 0.86367471204554 1.3810003308575 1.7493157209987 0.57789753512261 1.8992701277935 0.75601265420246 1.6863378450357 1.5960683173986 0.89332437206513 1.9078015017355 1.2086192038587 0.91860164876558 0.88183660862834 -0.10709871275935 1.8726150778196 1.5185740180292 1.1845074187077 0.57104461223282 1.7607403984774 1.7322404249791 1.5521540641813 1.7657722835312 0.69605022792598 1.5792296437893 0.97952437458143 1.5903660476083 1.8482527367852 1.3413408779049 1.5378799640189 0.59379566479121 1.6177337689079 0.70171512947066 1.6235743940999 0.47993654027122 0.23004894055509 0.067068227999809 0.45944557815349 0.8877378602607 1.8718408414488 1.3228397020216 1.8697059603335 1.1111033745417 1.1128065470731 1.5363950629143 1.358280923839 1.9169944710322 1.8255040619496 1.4663101618913 1.8372673139883 1.5619960787523 0.78366715288716 1.8441482015168 1.8948127675944 1.5323093673072 1.4340535108009 1.8525453199889 1.5215747195817 1.8699875439856 1.583126059509 1.6184615184989 1.731470702162 1.6681083826274 1.9675350136788 1.4515494672192 0.54646926464254 0.51393146545406 1.2865960627961 0.98844090383381 1.5810910582836 1.6979893724991 1.3076272858748 1.5220317154245 1.8413012715164 1.6748724085095 0.64010237087917 1.4476257505384 1.7038436031586 0.73915939544177 0.40074958689752 0.86330735635205 0.5049935952372 0.46281821859203 1.5908825304174 1.3678261494855 1.0856100489038 0.8287722118798 1.1375030043825 1.6518644875495 1.3135463914997 1.5447773498057 1.1185001298637 0.74879039041609 1.5949145208175 1.2950750250121 1.2399170228753 0.67087214226466 1.2113502881854 1.5315161549561 1.1053909576413 1.457956561601 1.187917616055 1.8332818528378 1.5955652307003 1.5474427407973 1.4380089278864 1.9247284927093 1.2808287159934 1.699773739288 1.5770190910826 0.47924137926974 -0.61178034192739 1.643962897496 1.2313896633872 0.77656599656224 1.5441476715183 1.5560824406678 1.8193826241758 1.9062824056201 1.0064420619628 -0.54826718636244 0.87628734123167 1.3959312369236 1.206450431627 -0.22906936770411 1.0974231555571 1.0616388420201 1.4203350118675 0.94726940914591 1.6025157057494 1.423229257218 1.2616553967007 1.5433562542652 1.7415924551066 1.726436851405 0.6359201424599 1.889225095028 1.0192400254804 0.17609211776142 1.3263010406925 1.6381578745767 0.53484890308476 1.3080839132887 1.3782213054703 0.76219848230808 1.3947843679325 1.7325364342189 1.4880673466876 0.90454469381489 1.7518685461912 1.6827082768431 1.2342192087144 1.3142018005195 0.98651557406977 1.4736885756667 0.30890424011174 0.61734645160565 1.1553760905048 1.2976072713025 1.5304523435318 0.77160972664862 0.49959261058403 1.8096255409823 1.8728639849417 1.9015519351492 1.609741584887 1.3757383555832 1.88089780143 1.8494982012834 0.59254272096734 0.84864668754558 1.4999774984513 1.0062534860018 -0.20907731214944 1.6095566262441 1.4179528671679 1.3631369545697 1.5843522395363 1.6325559459383 1.4769874944071 1.4345356925857 1.5388767237536 1.0621401676637 0.82767657536956 1.0277237538818 1.6672825114856 1.9805274621608 1.2530848245707 1.3705546378327 1.7124925368961 1.8431557077861 1.2751335210054 1.5734444442254 1.5236921330772 0.73745423941247 1.8491074009851 1.4634742026513 1.4306442955109 0.94539656494246 1.5649106497575 1.8404235480996 -0.33804720716285 1.5976916391749 1.512894756452 0.55934241497169 1.4210949941918 1.371135949997 1.0518516308182 0.21622974434401 0.18637461561065 1.5993515163089 0.32021723304659 1.6909776028432 1.3684006362369 1.7517684186286 0.91570339305747 1.7453008942025 1.4513975629517 1.7496941163157 1.7885711219344 1.4110630627693 1.2007483595999 1.4305443524052 1.5675430211619 1.2916002690697 1.7731257368963 1.8466670866229 1.5562505625167 1.1501661124519 1.2837653642142 1.1967583996227 1.2369709430132 0.95192974357943 0.69777443244777 1.4626942745425 1.5371232139558 1.8248220573949 1.4918941893383 1.8976452715881 1.4750182348018 1.6954552524779 1.4838402123195 1.9015788758953 1.3275331643462 1.0133957726296 1.5772970560257 1.969996398401 1.5766925697008 0.86712506843447 1.3511458704898 -0.21391403520308 1.8516071099531 0.50920787983516 1.8260444867502 1.4887346558784 0.26931795242136 1.5951809338354 1.3156170407827 1.0570237960424 1.4818333933218 1.6984823173008 1.8643580270189 1.3991643680516 1.5160889223022 1.8054972346585 1.6366557771979 1.3871578227083 0.71798168680935 1.6151730260978 1.5974966791932 1.5295238282224 0.6695158392567 0.58338855781347 1.371157000201 1.2343104074935 1.5092477404301 0.84807257369699 1.8498209764682 1.5990461384018 0.81689069918414 1.9637019165597 1.4107521923921 1.0695259332 0.63131782095005 0.84577707734465 1.0009600468827 0.56584513402629 1.7121590851934 1.62231424053 0.030373392842566 1.3721080459887 1.1669450931329 1.460040003513 1.3480401272083 1.5668104669464 1.5462877451382 1.8354473224947 1.0518591382477 1.6131926150595 0.78456625056991 1.0777327920583 1.3889449362928 1.6216239833291 1.0993556549779 1.7951713356235 1.6285128107249 1.3197920501333 1.6128526419879 1.4408945627744 1.6713929204903 1.5746305987964 1.6317055104336 1.6061815281909 0.42250298114048 1.326013427552 1.4417827898517 1.8393250607252 0.76677482581797 1.7984080644279 0.96894802744454 0.91332778870884 1.352866599952 1.8094095084604 0.89796719877197 -0.65489378993636 1.7031496501647 1.5676124201739 1.265901578804 1.6997397549285 1.4921872756519 0.66897883226703 0.83951714427895 1.8730446119675 0.94998677976271 1.5893440338921 0.84214459384837 0.71126099445851 1.361412526564 0.56997116551997 1.5605815539194 1.6279860748617 1.5332791308609 0.12828105564264 1.1352147564343 1.7046278511246 1.2214106120607 1.5537057083701 1.4365157062725 1.4059971360509 1.4345506254605 1.0854010131654 1.6015601079573 1.5829732568789 1.0077882068076 1.0785021844731 0.28811974301815 1.9715672884206 0.95643641070055 0.34196511158702 1.7393654797363 1.3298601917178 1.629434683038 1.7096355903297 1.684363457999 0.65506543335314 0.84559113135306 1.6906935701941 1.3920028883905 1.630798899862 1.1351500363596 1.5127403270926 0.86673711305477 1.053852528805 0.87650487462729 1.5177826480663 1.21031494863 0.69687622093033 1.8926026734274 1.6664461779778 -0.54508676585104 0.1399532659172 0.90206574182026 1.7117773873679 1.882550410905 1.564957463627 1.8532385937517 1.1983265986198 1.4660197593518 0.6249704983709 1.6851818555048 0.40924996064579 1.9744763746884 1.1287326786114 1.6131405939503 0.8993626401171 1.6205002886087 1.4736390555989 1.3508446800081 1.4347773408153 0.41973216368826 1.8362399814304 1.1177676630011 1.4971495908806 0.47842905205956 1.486783513591 1.5925951247991 0.96507350194207 1.3741541126332 0.90356093069474 1.6885682575664 1.1094070456156 1.4692008973392 1.3763607220095 1.2741797670293 1.8714901646896 0.75221359682131 0.44070637116488 -0.51440829346727 1.7907463140083 1.1467640336905 1.0527214923477 0.75819893001136 1.8343823202028 -0.18569931459009 1.6355466815288 1.600067266619 1.1173175200302 1.022700668749 1.7692231367191 1.8895235377627 1.472171414446 1.5494712654791 1.7957202298589 1.6067254921756 1.8633703781641 0.72871322362628 1.575654451281 1.8469533850598 2.0496651693998 0.7448198842196 1.4349999231882 1.4035834263912 1.4724134945817 1.6231539219697 1.614685122038 0.64415579636243 1.710399241982 0.73951534223625 1.1451762616485 1.4750146934108 1.9353450721474 1.1864520277384 1.4122786922776 0.14161261110108 1.675240361909 1.6631808207028 1.1527625058967 0.28532506344617 1.3992931294892 0.73553102415794 1.641168240265 1.2236139755161 1.4744866962176 -0.3232922871468 1.5727182217116 0.65347906386202 0.784114070348 1.8543938283712 1.2744644858203 1.3697883296636 1.5239590979062 0.48569222436706 1.8753712301598 1.7894502495763 1.5270872533132 1.8370654050193 0.67225400845441 1.6425874005003 1.6163005423045 1.5353100611939 1.040812466599 1.7997880395034 0.51445903533067 1.2770583907543 1.3962341888522 1.1976666624283 0.81094120469158 1.7747918310293 1.5496279526501 1.3584399917617 1.3857999800191 0.72740579658747 1.3985092561523 -0.41352031578914 1.6024431464862 1.0135418947338 -0.24520471330858 0.2730084845281 1.5281041396382 1.8323553723703 1.3310159928941 1.3864107896718 1.9019830140944 1.5439358101877 1.0948570991674 1.6284324242674 0.93504869500346 1.2140710088678 1.4978108615017 0.97687713362648 0.3639111631575 1.6828983257598 1.4483071344515 1.8615319823869 0.78272433053028 1.6841757598112 1.5490565841143 1.4876704967246 1.5728727467337 1.5582432541244 0.23485088798649 1.111305091028 1.4001632984228 1.0522033459272 1.2403650374122 1.1436957852689 1.6766297611165 1.0838138151411 1.2617349664113 1.4707995893675 1.815667659453 1.7574468273674 1.7457762073688 0.65641642383457 1.8736592873845 1.4729193057687 0.77776424829578 1.1915913558482 1.5002264816209 1.6271833090517 1.1277522014203 0.83871020594216 1.4450404238891 1.6239084115321 1.9340698603366 1.434733896224 1.3102245772236 0.81952074194337 1.4176032114326 1.5901440635423 1.592604850695 1.7689461291268 1.4383588529537 1.6139797724257 1.1339993494264 1.5457789603863 1.6072606159129 0.82142691535268 1.914450213357 1.4014681769981 0.59129394477263 1.6007355594291 0.91674979972261 1.539723955758 1.23938950549 1.7341626373403 1.2017867447927 1.2233179251438 1.561054317057 1.1623899935589 1.6711168412661 1.8613438035666 1.3321050285511 1.6543271420168 1.4376779589287 0.49018216721848 1.1441028622887 1.7952073120549 1.7472562024438 0.26680333531921 1.6027862239897 -0.5414317382246 1.4083918563262 1.7380680093016 1.3056357383574 0.66018524393177 1.7739878813872 -0.66831550848435 1.7735349755563 1.330581774677 1.4334273035558 0.7486594617336 1.1809480748954 1.3924608444655 1.0685832115203 1.4956785463502 1.0805900250474 1.7821811248096 0.77778205080742 1.4310994031141 1.5054576856409 1.2539540663001 1.3581963162464 1.5961707811815 1.5907732250052 1.4586187940717 1.1151080636146 0.62047055020393 0.75388007866079 0.66378262903526 1.5250907199662 1.5807047920652 1.5935372161957 1.0719736977577 1.6737421945362 1.6250352694302 1.1650505992257 1.5930145389635 1.4249460180745 1.611604557898 0.53205960107097 0.97249640955991 1.6111580441468 1.2727442920215 0.98594604434122 1.3473100756381 1.3633397563863 1.0593773401093 1.2755122018821 1.5503584473221 1.5311862300682 1.2144500190037 1.8537917533587 1.8187101614234 1.0946943054711 1.5339943992221 0.72971389615168 1.3222879566583 0.65932869677165 1.6429328551747 -0.19080671147022 0.74643860611402 1.5427377008585 -0.2469834531612 1.7019693612545 0.72064786706252 1.2772440435478 1.3312198972699 1.4380839141413 0.81694348188297 1.4143659284627 0.4969720943078 1.2576045909429 1.5766072078028 1.272488044104 1.5733641503032 1.5698696064076 0.97484081054185 0.84054299328835 0.53633510573017 0.7842230965369 0.6375664976398 1.8793385380593 0.45806746198756 0.92764280298838 1.5341278668694 1.2685436646102 1.6360245425079 1.8279747729158 1.6426131950533 1.6332898319803 1.2503437216752 1.4038013033803 1.5227006437893 1.5407639920221 1.7034689835699 0.56763960613123 1.5889151599102 1.6049772832987 1.1779200862707 1.1682345623259 1.6659037327004 1.9458520659068 1.5888511591477 1.7296310926944 0.66375793937391 1.2386422900587 1.8086703898667 1.5879305935134 1.3103737478613 1.7384200149536 1.0410142425382 1.3810206828523 0.45484398822707 1.695204936644 1.2810722024972 0.70589776077811 1.4282698605829 1.5340209317979 1.420855951719 -0.14287898727698 1.2836090636625 1.5865258474529 1.900547872308 0.34833317072627 1.7781534000496 0.86052994761855 0.22667503911846 1.1804814446016 -0.44865696966807 1.7245724751267 1.949256625488 1.4397680783004 1.0139638115532 1.5059578189588 1.8045395744425 0.43330409320827 1.5887613020595 1.5035756949422 0.22946753628991 1.4775604983571 1.3567533184683 1.6471369766395 0.95814474169371 0.53588041732073 1.4348597429024 0.64625178965984 1.2670740882798 1.8825567033873 1.3614147940046 1.4930955237914 1.3583392668546 1.6363808345545 0.36933665757868 0.41514239816064 0.98653554697116 2.0310980881241 1.1435517196736 0.62673103105924 1.517807181156 1.5843145794161 1.0669969150476 1.3457991090486 1.2473795620701 1.3809723161312 1.6038157086902 1.4644279793263 0.75792191192479 1.2805992599259 1.3431880775056 1.6353015378061 1.9036797947539 0.61827671802689 0.98829442263811 0.50577188473453 1.5184983642278 1.3138668522569 0.85106290550609 0.99446099484436 1.6845617115438 0.52180465866521 1.1946239821598 1.0695645828277 1.2896959651491 1.7555215178351 1.2362526759786 1.1243969084991 1.8026237538815 1.8903655061064 1.5554726253992 1.743462279251 1.6330973895639 1.2544170141364 0.7861529641249 0.76465452567634 1.4578593008105 1.0801890357105 1.1893819904209 1.4984570400727 0.76474722885638 1.6623256741383 -0.12521727085846 1.7993018101208 1.6108821539827 1.3577354718526 0.56653576435824 0.69493981242155 1.7794459899531 -0.015855674035021 1.1623511656774 1.3478276885603 0.61169386108018 1.1518763953162 1.9139099732903 1.7863914006199 1.5303592084149 0.68210782448166 1.7398851597933 1.6662579440848 0.36792841801778 0.93367423623927 1.6495734724121 1.0198804327259 1.5464548491011 1.5427847581363 0.93467139540741 1.3681251135142 1.2480136306575 0.78387360740792 0.64722003582048 0.64332325792191 1.7398233463045 1.8583348934964 2.4760518922552 1.5859656667217 0.91743672195247 1.597028503955 1.4563717799474 0.96032772876029 1.4826083216885 1.7158611328331 0.5278736290581 1.7024019648967 0.89124594936664 1.75100720602 1.6088005189074 0.75848741488892 1.1598085989574 1.518285762995 1.4157344376267 1.2442066475385 0.90927577092907 1.6594488540597 1.8217003210795 0.85703219367533 1.7132087718165 1.7579983868755 0.50574334089743 1.9768658170149 1.4189528925664 1.1916306630179 1.1708794664535 1.1038910466193 1.5945297874451 1.4736869288401 1.7148578190471 0.94063507644859 1.7655282942332 1.3762383430659 1.4258554528534 1.338147506045 1.0487983177422 0.67102235365698 1.9031663102889 1.8782267066955 1.4307315297532 1.9275304190652 1.0714625194352 1.0345770477148 1.5309424020775 1.5049994699775 1.3400899040887 1.362558320385 1.5102249569175 1.0483280613482 1.8399912594235 1.8634760377535 1.4075841419043 1.0450050950549 0.80275855803219 1.4137558898866 1.2563124833742 0.3165658105612 1.565180118983 1.7212305743168 1.2866428624178 1.8308787690455 1.3405572313745 1.0927172732611 1.8979595260862 1.5485850820894 0.74021846108212 0.73669298965997 1.2971693021936 1.8015653042702 1.1875588745024 1.0970867404304 1.6124323477567 1.3169585247694 1.7302338286454 1.6083337520529 1.2290409467733 1.3570489866487 1.795918548275 0.90526533321605 1.5770137098504 1.6491366442169 1.8862112710224 1.4848909183118 1.2493591470688 1.7830874129831 1.7632662895292 1.808993124198 1.5155788038413 1.4645589064823 1.5138245045929 1.6099014750745 1.4849356549647 0.9438155585271 0.07026842068494 0.88949547259107 0.79950190110965 0.78390527817167 1.5639230471344 1.3021649270792 1.7478296042166 1.2472494089929 1.5339115072675 1.2837628390426 0.60491031036099 1.7613374932569 1.5543823753699 1.6408226775824 -0.3464506801201 1.856560654499 1.6204988678879 1.0462697896528 1.8672837740113 1.1944853150206 1.2067742022347 1.9133266216013 1.3052695832392 0.62704180475737 1.4554627082184 1.203752670536 1.1062395012795 1.7971169141628 0.95591097443188 1.6625079272749 1.3316458045687 1.3293962741361 1.0377685377197 1.7729647725818 0.25971307059649 0.69675421213572 -0.49875257646144 1.3943141298297 1.4585679469825 0.79935585317256 1.0276930494101 1.5810275526809 1.7770565265607 1.4216215334104 1.6252128421666 0.89204571504633 0.91814029493054 1.8543344384035 1.7376376065256 1.5020672437137 1.6071262190714 1.4876655043119 1.424754377539 0.6044201588833 1.3885040836429 1.6807471459162 -0.1332051439731 1.3279287713529 1.8909776058866 1.4307927513561 1.4255275310481 1.2540499777162 0.89467920070898 0.4578133541289 1.5329682230062 0.82005226334496 1.3640110658547 1.4120614333331 1.5561323272114 1.6301997623286 1.7732955367636 1.7940397291366 0.34714912066281 1.4745732457432 1.1188897252837 0.43132358340301 1.8225602190979 -0.45873286342912 0.58101309610015 1.3159958195504 1.6584274318999 1.0095854407772 1.4985794966836 0.5777996344928 1.4236358803192 1.039436053895 1.264348836956 0.97717075995566 1.0398385653114 1.9052117320307 1.4803754111672 0.73214313611956 -0.044289636240742 1.0583400005337 1.3352007217489 1.5567521258674 1.4527989090759 0.97163082292899 1.851218365874 1.3486028728033 1.5150935031159 1.4536801097311 0.78764666698803 1.5740205529202 1.5389602319188 1.9638692475608 1.446