# vtk DataFile Version 3.0
d-2__ created by libgimli-v1.5.0-1-g5991b6ac
ASCII
DATASET UNSTRUCTURED_GRID
POINTS 803 double
8.3333333333333	0	0
8.5	-0.29429712828708	0
8.6666666666667	0	0
21.166666666667	-0.35154628884587	0
21.333333333333	0	0
21	0	0
-0.13949540192174	-0.65832226163824	0
0.26765699968102	-1.1941152153012	0
0.50098922076846	-0.451860121227	0
11.833333333333	-0.28867513459481	0
11.666666666667	-0.84084908820295	0
12	-0.57735026571174	0
-1	0	0
-0.82347194173878	-1.6006755924119	0
21.666666666667	0	0
21.5	-0.55217395360815	0
1.1666666666667	-0.35154628884586	0
1.3333333333333	0	0
1	0	0
1.5	-0.55217395360814	0
23.61842901153	-0.60378553647188	0
24.166666666667	-0.55217395360814	0
23.833333333333	-0.35154628884586	0
1.6666666666667	0	0
8.1666666666667	-0.35154628884586	0
1.8333333333333	-0.35154628884586	0
2	0	0
4.8333333333333	-0.35154628884586	0
5.1666666666667	-0.55217395360814	0
5	0	0
2.6666666666667	0	0
2.3333333333333	0	0
2.5	-0.35154628884586	0
2.1666666666667	-0.29429712828708	0
8.4079889429861	-0.75760412093209	0
9.0144333430414	-1.1439190584088	0
8.8333333333333	-0.55217395360814	0
13	0	0
13.166666666667	-0.29429712828707	0
13.333333333333	0	0
3.1666666666667	-0.35154628884586	0
3.5	-0.55217395360814	0
3.3333333333333	0	0
16	0	0
16.166666666667	-0.29429712828708	0
16.333333333333	0	0
3.6666666666667	0	0
3.8333333333333	-0.29429712828707	0
4	0	0
4.3333333333333	0	0
4.1666666666667	-0.35154628884586	0
27	0	0
26.833333333333	-0.35154628884586	0
27.166666666667	-0.55217395360814	0
3	0	0
16.5	-0.35154628884586	0
16.666666666667	0	0
2.8333333333333	-0.55217395360814	0
13.5	-0.35154628884586	0
13.666666666667	0	0
4.5	-0.55217395360814	0
4.6666666666667	0	0
3.9253443903472	-0.75760412093208	0
29.833333333333	-0.29429712828707	0
30.166666666667	-0.35154628884587	0
30	0	0
35.905165514021	-0.87509566217462	0
36.166666666667	-0.35154628884586	0
35.661339523067	-0.61041034021497	0
5.5	-0.29429712828708	0
5.8333333333333	-0.35154628884586	0
5.6666666666667	0	0
5.3333333333333	0	0
27.333333333333	0	0
27.5	-0.35154628884586	0
35.833333333333	-0.29429712828708	0
6.1666666666667	-0.55217395360814	0
6.3333333333333	0	0
6	0	0
37	0	0
37.166666666667	-0.35154628884586	0
37.333333333333	0	0
10.741322276319	-0.75760412093209	0
11.175685896383	-1.113902458684	0
11.166666666667	-0.55217395360814	0
6.5	-0.35154628884586	0
30.795730030397	-1.0103532830333	0
31.229185900173	-0.87228466782526	0
31.000045632922	-0.57199295442671	0
31.666666666667	0	0
31.833333333333	-0.55217395360814	0
32	0	0
40	0	0
40.166666666667	-0.35154628884586	0
40.333333333333	0	0
6.8333333333333	-0.29429712828708	0
7.1666666666667	-0.28872883340808	0
7	0	0
7.2211097499487	-1.0538354750778	0
7.0053271435993	-0.61041034021496	0
6.7615011526461	-0.87509566217461	0
9.5	-0.29429712828707	0
9.3333333333333	0	0
9.1666666666667	-0.28872883340808	0
7.3333333333333	0	0
39.666666666667	0	0
39.833333333333	-0.29429712828708	0
13.674580112811	-1.7184248716052	0
14.353791495618	-2.0265268011931	0
13.958469529133	-1.3940906823913	0
7.6666666666667	0	0
7.8333333333333	-0.55217395360814	0
8	0	0
12.994672856401	-0.61041034021496	0
5.5920110570139	-0.75760412093209	0
5.8348685364776	-1.5356869134354	0
9.8333333333333	-0.35154628884586	0
9.5718321806872	-0.87509566217461	0
10.166666666667	-0.55217395360814	0
7.33337923226	-0.57364431858631	0
10.36828810089	-1.6552861219901	0
6.6666666666667	0	0
36.666666666667	0	0
36.833333333333	-0.29429712828708	0
37.5	-0.55217395360814	0
24.333333333333	0	0
24	0	0
12.503171480364	-0.86507900392268	0
12.328351644367	-1.416191408927	0
12.778890250051	-1.0538354750778	0
11.5	-0.28867513459481	0
19.666666666667	0	0
19.833333333333	-0.35154628884586	0
20	0	0
9.6666666666667	0	0
20.5	-0.28872883340808	0
20.666666666667	0	0
20.333333333333	0	0
20.905165514021	-0.87509566217461	0
10.5	-0.35154628884586	0
10.333333333333	0	0
9.3280061897341	-0.61041034021496	0
10.833333333333	-0.29429712828707	0
10.666666666667	0	0
22.833333333333	-0.55217395360814	0
22.5	-0.72876886968591	0
22.915493514149	-1.1101467813362	0
5.2020787936337	-1.0219070688786	0
18.833333333333	-0.29429712828707	0
18.925344390347	-0.75760412093207	0
19.166666666667	-0.35154628884587	0
22.666666666667	0	0
22.5	-0.35154628884586	0
13.833333333333	-0.55217395360814	0
14	0	0
16.833333333333	-0.55217395360814	0
0	0	0
14.166666666667	-0.35154628884586	0
14.333333333333	0	0
14.5	-0.55217395360814	0
14.833333333333	-0.35154628884586	0
14.666666666667	0	0
15	0	0
15.166666666667	-0.55217395360814	0
15.333333333333	0	0
2.0948344859795	-0.87509566217461	0
2.2850956781966	-0.60378553647187	0
12	0	0
11.666666666667	0	0
22.166666666667	-0.95506458788032	0
22.166666666667	-0.55217395360814	0
21.833333333333	-0.7287688696859	0
15.5	-0.35154628884586	0
15.666666666667	0	0
17	0	0
20.833333333333	-0.29429712828707	0
20.661339523067	-0.61041034021495	0
9	0	0
14.166666666667	-0.72876886968591	0
17.333333333333	0	0
17.166666666667	-0.35154628884586	0
18	0	0
17.666666666667	0	0
17.833333333333	-0.55217395360814	0
17.5	-0.29429712828708	0
16.258677723681	-0.75760412093209	0
12.833333333333	-0.28872883340808	0
18.166666666667	-0.35154628884586	0
18.333333333333	0	0
17.407988942986	-0.7576041209321	0
19	0	0
19.333333333333	0	0
18.666666666667	0	0
12.166666666667	-0.28867513459481	0
12.333333333333	0	0
15.833333333333	-0.55217395360814	0
20.166666666667	-0.55217395360814	0
19.5	-0.55217395360815	0
7.5	-0.28867513958836	0
23.5	-0.29429712828708	0
21.833333333333	-0.35154628884586	0
22	0	0
26.592011057014	-0.7576041209321	0
22.333333333333	0	0
23.934922518609	-1.0280995368212	0
25.166666666667	-0.35154628884587	0
25.5	-0.55217395360815	0
25.333333333333	0	0
23.166666666667	-0.35154628884586	0
23	0	0
26.666666666667	0	0
26.5	-0.29429712828708	0
23.666666666667	0	0
23.333333333333	0	0
26.166666666667	-0.55217395360814	0
26.333333333333	0	0
26	0	0
24.761501152646	-0.87509566217461	0
24.951762344863	-0.60378553647187	0
24.5	-0.35154628884586	0
33.5	-0.35154628884586	0
33.238498847354	-0.8750956621746	0
33.833333333333	-0.55217395360815	0
24.666666666667	0	0
28.166666666667	-0.35154628884587	0
28.5	-0.55217395360815	0
28.333333333333	0	0
25	0	0
24.833333333333	-0.29429712828707	0
27.761501152646	-0.87509566217461	0
27.951762344863	-0.60378553647187	0
29.333333333333	0	0
29	0	0
29.166666666667	-0.55217395360814	0
25.833333333333	-0.35154628884586	0
29.947484315848	-0.62869436758688	0
30.409983486194	-0.76921735210505	0
34.166666666667	-0.72876886968591	0
34.166666666667	-0.35154628884586	0
25.666666666667	0	0
35.445556916718	-1.0538354750779	0
35.333287434407	-0.57364431858632	0
29.666666666667	0	0
29.5	-0.28872883340808	0
26.834868536478	-1.5356869134355	0
30.833333333333	-0.28872883340808	0
30.671365010853	-0.57276869068256	0
27.666666666667	0	0
38.204670056311	-1.4270134762662	0
38.601589185276	-1.0280995368212	0
38.094834485979	-0.87509566217463	0
28	0	0
27.833333333333	-0.29429712828707	0
36.662074300781	-0.56642454030296	0
28.666666666667	0	0
31.746636025369	-1.1187108767801	0
28.833333333333	-0.35154628884586	0
33	0	0
33.166666666667	-0.29429712828707	0
33.333333333333	0	0
34.5	-0.55217395360814	0
34.731644951192	-0.92970615345739	0
35.666666666667	0	0
35.5	-0.28872883340809	0
30.333333333333	0	0
31	0	0
31.166666666667	-0.28867513958836	0
31.333333333333	0	0
38.285095678197	-0.60378553647188	0
37.833333333333	-0.35154628884586	0
30.666666666667	0	0
30.5	-0.29429712828708	0
36.5	-0.28872883340808	0
33.666666666667	0	0
36.41952417611	-0.77749898599357	0
38.5	-0.35154628884586	0
38.833333333333	-0.55217395360815	0
38.666666666667	0	0
29.657657699283	-0.83081436360664	0
40.168201869811	-1.5356869134355	0
40.5	-0.55217395360814	0
39.925344390347	-0.75760412093211	0
32.994672856401	-0.61041034021495	0
31.5	-0.35154628884586	0
43	0	0
42.666666666667	0	0
42.833333333333	-0.29429712828707	0
43.404176293252	-0.42323554094762	0
35.88498281448	-1.5034830799843	0
41.166666666667	-0.29429712828708	0
41.074655609653	-0.75760412093211	0
41.5	-0.55217395360814	0
41	0	0
41.333333333333	0	0
34.333333333333	0	0
32.166666666667	-0.35154628884586	0
32.333333333333	0	0
39.5	-0.55217395360814	0
39.333333333333	0	0
36.500673817427	-1.6307728168531	0
40.833333333333	-0.35154628884586	0
34.666666666667	0	0
35.333333333333	0	0
35.166666666667	-0.28867513958836	0
35	0	0
36.333333333333	0	0
36	0	0
12.333333329009	-0.57732068917697	0
37.666666666667	0	0
7.9035368819631	-1.2622568520387	0
28.737635378193	-1.2311528923644	0
29.212976838479	-1.0424777721347	0
28.833333333333	-0.7287688696859	0
12.66662076774	-0.57364431858631	0
38.166666666667	-0.29429712828707	0
38.333333333333	0	0
12.5	-0.28867513958836	0
39	0	0
39.166666666667	-0.35154628884586	0
20.347766676375	-1.1439190584087	0
19.833333333333	-0.7287688696859	0
40.666666666667	0	0
42.5	-0.35154628884586	0
10	0	0
18.5	-0.55217395360815	0
41.666666666667	0	0
23.428167819313	-0.87509566217462	0
42	0	0
42.166666666667	-0.29429712828707	0
42.333333333333	0	0
42.744785246826	-0.77776727251482	0
41.833333333333	-0.35154628884586	0
38	0	0
41.542494325991	-1.1832128457714	0
2.6015891852757	-1.0280995368212	0
13.258353909981	-1.6064355191183	0
4.8333333333333	-0.72876886968591	0
15.5	-0.7287688696859	0
15.8687454603	-1.0219070688786	0
16.501535203144	-1.5356869134354	0
14.833333333333	-0.72876886968591	0
12.666666666667	0	0
17.797921206366	-1.0219070688786	0
18.166666666667	-0.7287688696859	0
36.905165514021	-0.87509566217463	0
32.666666666667	0	0
32.5	-0.55217395360814	0
34.833333333333	-0.28867513459481	0
34.999999995676	-0.57732068917696	0
34	0	0
35.169838147031	-0.8650790039227	0
42.285095678197	-0.60378553647188	0
41.877780449001	-0.80261564071807	0
13.238498847354	-0.87509566217461	0
11.333333333333	0	0
11.697267761921	-1.4738194081615	0
12.166692603518	-0.86967323340335	0
3.1666666666667	-0.72876886968591	0
11	0	0
18.535412126967	-1.0219070688787	0
25.833333333333	-0.7287688696859	0
25.268255851942	-1.0280995368211	0
28.268255851942	-1.0280995368211	0
[...]
CELL_DATA 1424
SCALARS Coverage double 1
LOOKUP_TABLE default
2.8617479027119 3.1107710432464 2.0253950128224 2.5860961836931 1.8029531950544 2.9729660354647 2.8383883510473 2.3207585990406 2.7319155899289 2.60689217818 2.8131046324441 2.4194945785628 2.8534616740799 2.6514639497904 2.6879835496334 2.6110173845629 2.4711105348968 3.2336383321843 2.621681703026 3.2285400112521 3.2885579493035 3.2588810351669 2.9232908300256 2.9732311005215 2.9455632627525 2.9549343509407 2.9461343997 2.8675512922877 2.5300183751646 2.9226824299025 2.9904652322097 2.6443373684256 2.7626617309346 2.9700057669373 2.8786200898528 2.7325997449946 2.9803154912025 3.3200882782104 2.4855601701635 2.7244115705023 2.6410209267303 3.0284584763622 3.1475198800473 3.2720032558635 2.8236067188962 2.4534630657136 2.8558567259892 3.2814473194457 3.2865585680805 2.1235422345235 2.978010604508 3.0606497089543 2.6919276904566 2.3638702568475 2.7995193209639 2.6234386249837 2.5003785112026 2.4229880579124 2.8667841249962 2.9450618059006 3.3363960445023 2.8623066339553 3.122347654755 2.3525198618454 2.6048513000029 3.0836487575492 2.9874726491718 2.898877295444 2.6451884109294 2.7819842082605 2.9190230284624 2.7077658037647 2.8184894815644 2.5786284219313 2.4075946475104 2.7187781435377 2.8181511617016 2.7328641827392 2.457823743218 3.0179405523749 2.7486244816511 2.5843957171284 2.7375789952984 3.0713006204532 2.5984875098219 2.7635705710032 3.007798855171 2.8690430358284 2.8344207127205 2.3288577222751 2.7660995531407 2.4272994223789 3.06160349408 2.6193277208858 2.5067050779988 2.9372443907521 2.3539165653474 3.0285849462571 2.7220941590351 3.0285853113484 2.6245709412786 3.0713667887894 2.652380436292 3.0062226219683 2.8177703843477 2.6858596324344 2.7920423882482 2.75330419809 2.825194894453 3.0246203838534 2.6217974751324 3.2431537545552 3.2819055951421 3.0603211708173 2.6188551659887 2.8547845181474 3.1600601185504 2.7729145689673 3.14890467783 2.8680908604193 2.7395803992692 2.8621543996672 2.9309002129608 2.7828906724024 2.7022676313395 3.0655749093232 2.7190456408427 2.8084949625234 2.9086711293309 2.8012645306757 3.3264932498634 2.726215264112 3.0370093766023 3.2722738443527 2.6261232937698 2.917912118703 2.8671782396647 2.9432517485708 3.1931387055575 2.8997155203884 3.170747046428 3.0981449200102 2.7129014537564 2.7121331003146 3.0775716587189 2.9379691992624 3.4053874871045 2.9795823360316 2.7342259126761 3.1948587248328 2.8404450735837 2.7335572485516 2.9961267717478 3.2145312880826 2.7813690015914 3.1841597020228 2.5786657876577 3.0486111652513 2.967720142809 2.8285005506043 2.5628670571727 2.8057680569025 3.0991921269098 2.3182187057325 3.4012365957809 2.986063717522 2.7468846953991 3.0716005119176 2.6039268523344 2.8546215396072 3.2207812804944 3.1691622420099 2.9047148626705 3.2081590568359 2.6505896654542 2.9073579060619 2.650111484698 3.1868048847797 3.2178956072013 3.4043081682102 2.5975316678061 3.0942400821354 2.965913864599 3.0973395515141 2.9731804826754 2.8790461608522 2.7093152316798 2.7593412340252 2.7246516436392 2.410889386995 2.7721855652673 2.7370616047989 2.8714575677467 2.9336611336918 3.0866503217947 2.2975424261692 2.4300548868022 2.7853423493375 2.4782247110424 2.9967432706843 2.9306537787357 2.8398965692132 3.1869317414625 2.9118341753408 2.308191855393 2.5114602195214 2.6315816504437 3.0565335015831 2.7183326508236 2.9572082279241 3.2076764618963 2.9582235369848 2.6541785136659 3.1291938636981 2.6468019123883 2.9645331867347 2.7853669301517 2.6821644246597 2.7529923322921 2.4421874284395 2.8622560082243 2.5673989080049 2.537683244403 2.6507194108008 2.4911536571839 2.8286743773951 2.8340182899844 3.0852825401675 2.8794407485136 2.7395392850777 3.058236054369 3.114542068414 2.5283488068988 2.8718150523882 2.5279261470817 2.8740055929013 2.7047016912822 3.2361050771021 2.9161840040089 2.967123200592 2.8459166381889 2.6907436483194 2.7178777442945 2.868873591748 2.6677141810051 2.9860367352142 2.8587873984603 2.1595039245242 2.7125327997452 2.753206930965 2.9566638823191 2.5969058343217 2.7069472743026 2.6314556414674 2.7683035123331 3.0910410531804 2.6487546792718 2.8981101154215 2.3076245166162 2.4726277086322 3.1556856657214 2.3213117703368 2.6397502487632 2.7941484442914 2.5810108833859 2.8112689376729 2.5374883265962 2.6125179650564 2.7123019191591 2.2580194210857 2.5534168740005 2.6525859343674 2.5433346451224 2.5392715866298 2.4553914700225 2.6289462114278 2.7518408850093 2.7911034766418 2.6172942875758 2.6218442387776 2.7847910483394 3.233561333762 2.8865287650442 2.5099297358352 2.6499188450176 2.6265523181884 2.7413467763876 2.6817645958048 2.7668241908736 2.8331361578922 2.6690470409129 2.7819088949138 2.7970715953793 3.4215021498145 2.8546072193898 2.8997404555851 2.7413471883396 2.8018705790494 2.8274299454445 3.4140484572627 2.8661240848097 3.0101007211052 2.7411650860688 2.5714262514279 2.9558523092517 2.7657322551779 2.8192383046028 3.403645291484 2.9415901918998 2.9419957334395 2.9305025691638 3.3631431397494 2.6754155865927 2.7936232129476 2.5965220418741 2.3953932609534 2.8988557793153 2.6053020824241 2.6867183514115 3.1036438237294 2.7044389520614 3.0312090073588 2.8100135500943 3.0104196165705 2.3103035105367 2.4069612175995 2.5799049145308 2.5568053358158 2.6504389774041 2.7662286781273 2.5869990166181 2.4921742327929 2.6065022185788 2.8201626254236 2.7772506175873 2.906357637452 2.3667299927081 2.2570425458355 2.8645850844261 3.2810620545683 2.9727404076943 2.799818374149 2.6429903046007 2.6636359683241 2.614462297151 2.7486186014489 2.6573229464995 2.8561750030978 2.6822420812107 2.6656244663348 2.9131237309858 2.5543009221061 2.288172466914 2.5892823438411 2.5154684406184 2.3486089585304 2.6969686994961 2.7068122246372 2.4126884820493 2.943832842442 2.623564933922 2.4809409638725 2.5406717314487 2.6396845226267 2.5516967646733 2.6297664046471 2.3925749411808 2.8535391811641 2.7521181752996 3.0088204261929 2.7012394156031 2.6440015470446 2.6911583532938 2.8848794996787 2.7713118803862 3.0247037413026 2.7342556927066 2.9142872758446 2.8949479064078 2.662438144277 2.7410435921607 3.0341092864939 3.2223893202905 3.1618192788156 2.5904039453475 2.7726044782718 2.8119941801195 2.8730761140684 2.5475203781792 2.7349714790907 2.9059920792885 2.7039426715152 2.6140649541681 2.8158023360912 2.6214689100129 3.4160235036487 2.4865840417494 2.5485022059605 2.3775463292329 2.6124349859386 2.3012545406497 2.4625384771729 2.3223631655552 2.3724594187435 2.5537606430779 2.338039465769 2.3107527434609 2.8867595299244 2.4620458202945 2.5244885557602 2.6089018870075 2.6725998609023 2.5472864285943 2.6359275363545 2.4991464432346 2.7090821610368 2.6719247511933 2.2856297064434 2.5235022638041 2.5520486723613 2.3885784813912 2.012475867158 2.5282636125001 2.5827194263289 2.7622611341457 2.6241096956037 2.7710748320728 2.639802459126 2.2413307371375 2.7683045125593 2.5883854321175 2.7221165453115 2.5481915527654 2.8676824379286 2.5642595328313 2.8903883269255 2.5866888450565 2.2699760446304 2.2676339240371 2.6910827656164 2.6981522786263 2.7822777528401 2.5546883885643 2.4242183273813 2.2248676234934 2.8121318043198 2.6205396889997 2.8353632041199 2.6383765967548 2.6901786508447 2.4467268779769 2.4689448166869 1.9168025822228 2.5507769487489 2.4123636137055 2.0564704872241 2.2073412867573 2.4217077001934 2.4667884469157 2.4849112515939 2.5403927649137 2.899484477361 2.4621717580174 2.2334413994907 1.958694090146 2.1681689752794 2.6395800854608 2.4022288406228 2.4308034716618 2.0961081156473 2.6772648932767 1.8400116782949 2.7309830229951 2.5146580076962 2.5366659232789 2.4876344303265 2.7574732293428 3.2848890421883 2.3907404312444 3.0787324223852 2.5193916477132 2.5311657978909 2.5646428614487 2.613443786317 2.3806759946433 2.5996287032884 2.5174714548409 2.5387471509229 2.2559483915758 2.6412360648576 2.4753503377263 2.665632036143 2.107068887335 3.0864172705927 2.5332072316224 2.4573570429088 2.3142932511916 2.4049252880474 2.5255674251563 2.6348229733333 3.0167274041261 1.766636645068 2.6896425150357 2.6217012302614 2.3547971847414 2.4637020426197 2.0539649143682 2.1785662709714 2.5363311608611 2.2738935187842 1.8849961794932 2.4642047331101 2.3672607190365 2.8102175435855 2.1296513867141 2.3335270217546 2.308032664185 2.3742089808816 2.0721354474976 2.1056948368445 2.4912263502098 2.6570319654112 2.5013909593707 2.4523236951452 2.2897739979756 2.3377574667926 2.0082513739091 2.4778657664052 2.2172381469417 2.2244914626994 2.4912782334192 2.3929114500928 2.5774697602424 2.3633962628591 2.16410027468 2.5178313683114 1.866119836194 2.1796002741532 2.4340984023254 1.6631274476316 2.2917761056049 2.2804292055385 2.5303849669237 2.3530272525563 1.8349581544449 2.5528685946677 2.5168550030159 2.6021173566429 2.610099572325 2.4563692122775 2.3655295396473 2.4457116320483 2.4325642094818 2.4465752107794 2.1326240134985 2.0307650940941 2.6195525559941 2.5190376368681 2.3425328135361 2.4209992217477 2.3389306895799 2.6819636600861 2.3912284253046 2.2611086736197 2.2413512253088 2.2750453056786 2.3869039171735 2.545168723463 2.9637823113449 2.6172710104802 2.0353969784393 2.4870830217513 2.8326038081787 2.0008218515921 2.4077373753857 2.409467993095 2.3004076937358 2.2976086554717 2.6368844355226 3.0484939791896 2.3941501769561 2.3373266095627 2.3340245269292 2.3764301835764 2.7071409243186 2.4577611610534 2.1699679674042 2.165017476101 1.7142225452716 2.1267792458901 2.2060434710096 1.7274923515159 2.764765446274 2.6331386141622 2.3321527712136 2.2653135946081 2.7001699872318 2.6124681804943 2.0025784499289 1.3443756603003 2.2555065766959 2.3178080854321 2.1444603963358 2.8286399376983 2.0603110648926 2.0375454022211 2.530742527682 2.7332187702842 2.4338742076079 2.3185885199399 2.4139598596284 2.3482876494379 2.1780327556951 2.4698811101069 2.1740957817574 2.3462470409576 2.4919445057521 3.2080334228642 2.1685053335806 2.0171295753777 1.9622410183381 2.1836293564062 2.13342932576 1.9731042475901 2.1908233935831 2.256611395642 2.3016660393058 2.0638457846279 1.9914649948598 2.4973609642343 2.4297850571676 2.596102094509 2.3022167599531 1.8501181366651 2.4069890768425 1.7280593380309 1.6342721719948 1.8952261373641 2.3367107823574 2.7080121937094 1.9963627026899 2.7100768611133 2.1394700489408 2.1610229564235 2.0032103565789 2.2699329120813 2.0120538653041 2.5050118585976 1.926863755636 2.2774712249331 2.0788119520924 1.6845346142976 2.1232128559018 2.1683305772133 2.2634923813324 2.2177940784092 2.2836049101525 2.0799450281866 2.3818409929327 2.7521276152866 2.0548185214997 2.2996300479338 2.2081171477003 2.167521334816 2.3497638973996 2.1245011428187 2.1338465361193 2.6610528935424 2.4394059680381 2.1605779754632 2.8530158775485 1.5872096308478 2.0284483781368 2.691832030327 2.110135949305 2.3089221588181 1.2996829533208 2.0649693942125 2.750538111638 2.1836026540047 1.8371622347131 1.9423617736253 2.3051441519838 2.1277687075443 1.8882866306605 2.1415863565587 1.9553811911255 2.0938134057249 1.9452263345569 2.3294548122594 2.0784590221076 1.9026870376503 2.1082534272157 2.0877207063368 2.1453412655611 2.0294523061257 2.0625889026231 2.8976981987478 1.9877158916848 2.1549563332132 2.3283170940204 2.1654032591181 2.0152728014242 2.2189672850207 1.7768948617997 1.9550885936006 1.8398393922258 1.9213261937252 2.0674760530033 2.7032168487535 2.3185972425889 2.0040765725463 1.7686419770256 2.3843547038509 2.0541678304023 1.3547302080049 1.8248527574698 0.64808707512144 0.8138347684789 2.0116740982435 1.9704583697119 1.852314661661 1.4395243407848 2.1055887531083 0.92943019534117 2.5055756953159 2.6766355271962 1.9647736022591 1.4774257696821 1.2680947478851 1.8654095527745 2.5098289089432 1.6564848957509 1.7986076256487 1.8604089142352 2.4441317869085 1.8307583042124 1.8883384224681 2.0172957164929 1.7011418032095 2.1585677672656 1.935493357402 2.0883786317226 2.0275518246842 2.0679483891498 1.871132183955 1.6227260400077 1.9987693985963 2.2759103609044 1.5985492850154 2.4686014564699 2.5987733968241 2.4532658423344 1.8996021723057 2.3104403365472 1.6625018732579 1.5891664014113 1.7268739308277 1.6613007569496 1.8835362334693 2.1186179552407 2.1579893004275 2.8806873840724 1.743754754466 1.7163838096706 1.5814966180407 1.6443855063552 2.3911522601967 1.9629384380317 1.78845191702 1.974001652593 1.7497373556125 1.4253162022793 1.4073017794921 1.9832782249064 1.6130270156079 1.5361179166045 1.6027743330019 1.8517968296569 2.2435442991245 1.3066078600728 1.8857458987066 1.1908283227283 1.4446109478495 1.6135378651844 1.9706889131928 1.718715600992 2.2336107898993 2.0550937766377 2.032514732036 2.1292001109814 1.7193781506655 1.8922951256723 1.8896048270079 1.7547044413513 1.8716113643911 1.9638341588275 1.547825246468 2.041414510559 1.7896201544612 1.6941066181468 1.8298929538189 1.8846462319294 1.8920165166513 1.2187205130397 2.0247953687564 1.7021316709954 1.7977635098562 1.5148708688033 1.8180941069722 1.5488268706268 1.5058974032942 1.6915931784599 1.7244083851935 1.5386723233445 1.7388546506075 1.6333384831434 1.3861854769635 1.5134920792647 1.5798007611763 1.246934809193 1.7223442541533 1.3421299994296 1.7567464569151 1.5771343202328 1.61971881919 1.3280875971391 1.4079069340497 0.97794340689955 1.2430911027863 1.4283307200607 1.3370390048423 1.2447527643932 1.5394042592731 1.4425120186154 1.605837802805 1.1602892563118 1.7677850909855 1.9320278690681 2.0722359171172 1.7139479349939 1.4955478433918 1.5507252010001 1.6436619005729 1.485419003596 1.3864654518697 1.9018987912251 1.0148419769208 1.5310932086954 1.6074768809757 1.8122976913619 1.7224328727156 1.6102169710009 1.5034508924708 1.4837515845551 1.2773435212688 1.1595697643461 1.3211710337904 1.5062873396524 1.3846849031379 1.5178269152438 1.1856572423586 1.8133726147959 1.4615907420078 1.7315585937467 1.8005574294518 1.3857568022826 1.3683735820561 1.6412551097449 1.650217878491 1.342025120017 1.4686118008344 1.3905481232256 1.517613618392 1.3371384910616 0.82157701303116 1.2924420268663 1.5758796521132 1.315640073586 1.0982548139727 1.5100351325072 1.3691993235331 1.3055651096015 1.2051444953424 1.5138807261956 1.1152122252189 1.2552141877798 1.2789441906011 1.2791744684513 1.0988740588208 1.2080901208877 0.76330571713225 0.96140898299325 1.0963562831858 0.95569685171378 1.3149352578378 1.3830328567501 1.2825457841844 1.0444289608528 0.8135738616879 1.106136780868 1.1424875882793 1.6421401981572 1.2867246114995 1.151183532073 1.0356230072135 1.2202574661007 1.0639151135318 1.2803271083003 0.50567029838991 1.1635819377883 1.5352580431688 0.96905761457182 1.1540828777453 0.78202429597125 0.84613656888845 1.069254810548 1.2914317840826 0.94792996375289 0.98832352841677 0.98780225732415 0.68910513644354 0.97577468946612 0.52323668422745 0.44711646300197 0.50554454358205 0.65730242282705 0.83778855208907 0.8879071017059 0.87658945375836 0.77574430197315 0.82400370233049 0.90335985290693 0.90931470835003 0.42790019195314 0.78185487300459 0.96645737229625 1.6581537338438 1.6902293404894 1.2202345411599 1.4011198606385 1.1401514583854 1.2572169330204 1.2204169983526 0.71223075429185 0.81840518155825 0.673542357514 0.68545937053543 0.70052750021013 0.8065668813848 1.087754150205 0.71428201120254 0.6513089783658 0.77873366789146 0.87232747113555 0.58191463337464 0.55843996503265 0.8005374850081 1.4486061920257 0.82415434726743 1.428404599203 1.2054684413651 1.4877761163324 1.5596161053197 1.440364116942 1.4003710111954 1.2117843242339 1.3236619586107 1.321809415664 0.8743422056386 0.72765834215624 0.54504391534271 0.4470801768975 0.43869784857359 0.91995659848846 1.1677417260437 1.1100988367703 1.405129956731 0.83989702259448 0.93100567735552 1.0268226749896 1.3539740217897 1.0695743710226 1.3072632762806 1.1634045305817 0.98183497238978 0.83910758434012 0.75023134551425 0.57062346180515 0.79899417133736 0.46432911908691 1.1015163665014 1.111480858648 1.4973929930017 1.2106309226464 1.3137192849692 1.2944237084448 1.5403819493687 1.1102512890306 1.0410881330402 0.67146260852796 1.0051976733625 0.9403892439323 1.0067197073017 0.98050993452849 1.1506044196131 0.54099739127605 0.65114813514597 0.72979635912055 0.58915258962611 0.85352512450285 0.51759301204038 0.61044908015872 0.88024817402715 0.97064425307332 1.1084915728922 0.72490824125159 1.2175297058931 0.80596545745172 1.3963069683337 1.0499893482225 0.81788205978132 1.1886496545329 0.98802764636352 1.1347621264352 1.0849141947128 0.50749060289084 0.41358453853888 1.0757530442429 0.72921320795287 0.801924233768 0.68590758405045 0.72643479265774 1.1799482739094 0.57017608616866 0.72166770304538 0.90397787725438 0.77794319279789 1.0383159711989 0.96209747729738 0.6484511134316 0.53909604865375 1.1755444591312 1.1039113623724 1.2473411326631 0.94186392982487 0.99527578534841 1.0895355921949 1.0139155514163 0.84027969222249 0.91202196177664 1.0204467080758 0.6344262663721 0.44443699605928 0.88704746636387 0.57970324304617 0.83855400664833 0.85104912524273 0.39130998670198 0.50709248509955 0.55532948743204 0.62989206827653 0.92420699818458 1.0286997643747 0.83530941963779 0.52323463445283 0.93601174204999 0.50850068776667 0.50062052931275 1.112972174608 0.59753345257353 1.4090652090558 1.2372126941248 0.79556389923999 0.84789665266993 0.57428621260526 1.2081678393046 0.69645119721067 0.63721812191736 1.7035667243768 1.3738212055398 0.67749963291327 0.8300813014768 0.76778402175071 0.56444009134823 0.52231742560518 0.56980761337874 0.47672979370374 0.61996804665411 0.47322113652347 0.53822674665058 0.59763202878179 0.79485060200011 0.6619624424344 0.59771572583297 0.47704503532166 0.72920882354275 0.5186420024592 1.6804136572778 1.3548564568557 1.1998731417711 1.0893233316894 0.53738360309913 0.59327014076242 0.67391840745439 0.50997827295435 0.49280546162353 0.64874749820784 1.0184699633971 0.79473896722733 0.75853572691318 0.63800396717528 0.4796252108078 1.2092824647053 0.89701591630263 0.6303478528833 0.4923907464397 0.67777617561726 0.53766061397884 0.56514050132849 0.4799896544934 0.50249907316776 0.64478177351997 0.79832634621582 1.1942648313243 0.71217551704881 0.66063006016079 0.7566469211692 0.8591679405748 0.78722361904827 0.47989477493343 0.71705042756079 0.8616597920326 0.92544060629647 0.96522550372335 1.0352591650365 0.97812459561006 0.87731245797829 0.8146367435799 0.93728786229836 0.69354827821844 0.73120867439949 0.66519484761447 0.91829164127632 0.52030247160302 1.1741552073167 0.87250196128823 1.3237828936639 1.1819974487427 0.78877017004613 0.74588310907535 0.78467058344062 0.6163156095526 0.70868129271062 0.47592135203717 0.94693876560291 0.70727839207047 0.80816031443842 0.9415099491076 0.85404795647497 1.1893520479461 0.72791739910449 0.76915763408619 0.85363437230926 0.82681641157636 0.71108737710077 0.53852572527238 0.60650822531631 0.96974803596378 0.76471006796298 1.0081461463155 1.1002568481466 1.0958147223849 1.4971020738093 0.47927715411115 0.62841574147822 0.97183764908439 1.1166564818338 1.5929570725746 1.4605982303006 0.8932838901937 0.77446636955298 1.8043367763898 1.630288442798 1.3586138668676 1.5059982815994 1.3214506707766 0.75835069783183 1.5862008700795 1.331977464483 1.189263581411 1.2734344519733 1.1338914819393 0.87431202110517 0.9505253543074 1.11291334409 0.94387599693586 0.94954895169504 0.87641823856538 1.2527368154468 1.5157393666513 2.0462945858052 1.7429725355048 1.4870667362443 1.2631691144502 1.1427641771623 0.75002252451989 1.2521466460241 1.0486966942654 1.3325220694729 1.0428550284579 1.0365234780261 0.88082003739889 1.2006451877552 0.83512576580785 0.80462273541588 1.1365576079522 2.0047746433446 1.8738729772016 1.9965569485343 1.62160907583 1.0977587183279 1.3396886114213 1.4746914076235 1.4063070907755 1.3517041967264 1.3072135534003 1.3167014251842 1.4516804207997 1.1852454224533 0.98280782048778 1.845218430736 1.6593646937778 0.73440004093396 0.43723089657552 0.59481658799781 0.50282047540506 1.2575597046421 1.4937106800817 0.54990033343071 0.46901776303834 0.55482