# vtk DataFile Version 3.0
d-2__ created by libgimli-v1.5.0-1-g5991b6ac
ASCII
DATASET UNSTRUCTURED_GRID
POINTS 803 double
8.3333333333333	0	0
8.5	-0.29429712828708	0
8.6666666666667	0	0
21.166666666667	-0.35154628884587	0
21.333333333333	0	0
21	0	0
-0.13949540192174	-0.65832226163824	0
0.26765699968102	-1.1941152153012	0
0.50098922076846	-0.451860121227	0
11.833333333333	-0.28867513459481	0
11.666666666667	-0.84084908820295	0
12	-0.57735026571174	0
-1	0	0
-0.82347194173878	-1.6006755924119	0
21.666666666667	0	0
21.5	-0.55217395360815	0
1.1666666666667	-0.35154628884586	0
1.3333333333333	0	0
1	0	0
1.5	-0.55217395360814	0
23.61842901153	-0.60378553647188	0
24.166666666667	-0.55217395360814	0
23.833333333333	-0.35154628884586	0
1.6666666666667	0	0
8.1666666666667	-0.35154628884586	0
1.8333333333333	-0.35154628884586	0
2	0	0
4.8333333333333	-0.35154628884586	0
5.1666666666667	-0.55217395360814	0
5	0	0
2.6666666666667	0	0
2.3333333333333	0	0
2.5	-0.35154628884586	0
2.1666666666667	-0.29429712828708	0
8.4079889429861	-0.75760412093209	0
9.0144333430414	-1.1439190584088	0
8.8333333333333	-0.55217395360814	0
13	0	0
13.166666666667	-0.29429712828707	0
13.333333333333	0	0
3.1666666666667	-0.35154628884586	0
3.5	-0.55217395360814	0
3.3333333333333	0	0
16	0	0
16.166666666667	-0.29429712828708	0
16.333333333333	0	0
3.6666666666667	0	0
3.8333333333333	-0.29429712828707	0
4	0	0
4.3333333333333	0	0
4.1666666666667	-0.35154628884586	0
27	0	0
26.833333333333	-0.35154628884586	0
27.166666666667	-0.55217395360814	0
3	0	0
16.5	-0.35154628884586	0
16.666666666667	0	0
2.8333333333333	-0.55217395360814	0
13.5	-0.35154628884586	0
13.666666666667	0	0
4.5	-0.55217395360814	0
4.6666666666667	0	0
3.9253443903472	-0.75760412093208	0
29.833333333333	-0.29429712828707	0
30.166666666667	-0.35154628884587	0
30	0	0
35.905165514021	-0.87509566217462	0
36.166666666667	-0.35154628884586	0
35.661339523067	-0.61041034021497	0
5.5	-0.29429712828708	0
5.8333333333333	-0.35154628884586	0
5.6666666666667	0	0
5.3333333333333	0	0
27.333333333333	0	0
27.5	-0.35154628884586	0
35.833333333333	-0.29429712828708	0
6.1666666666667	-0.55217395360814	0
6.3333333333333	0	0
6	0	0
37	0	0
37.166666666667	-0.35154628884586	0
37.333333333333	0	0
10.741322276319	-0.75760412093209	0
11.175685896383	-1.113902458684	0
11.166666666667	-0.55217395360814	0
6.5	-0.35154628884586	0
30.795730030397	-1.0103532830333	0
31.229185900173	-0.87228466782526	0
31.000045632922	-0.57199295442671	0
31.666666666667	0	0
31.833333333333	-0.55217395360814	0
32	0	0
40	0	0
40.166666666667	-0.35154628884586	0
40.333333333333	0	0
6.8333333333333	-0.29429712828708	0
7.1666666666667	-0.28872883340808	0
7	0	0
7.2211097499487	-1.0538354750778	0
7.0053271435993	-0.61041034021496	0
6.7615011526461	-0.87509566217461	0
9.5	-0.29429712828707	0
9.3333333333333	0	0
9.1666666666667	-0.28872883340808	0
7.3333333333333	0	0
39.666666666667	0	0
39.833333333333	-0.29429712828708	0
13.674580112811	-1.7184248716052	0
14.353791495618	-2.0265268011931	0
13.958469529133	-1.3940906823913	0
7.6666666666667	0	0
7.8333333333333	-0.55217395360814	0
8	0	0
12.994672856401	-0.61041034021496	0
5.5920110570139	-0.75760412093209	0
5.8348685364776	-1.5356869134354	0
9.8333333333333	-0.35154628884586	0
9.5718321806872	-0.87509566217461	0
10.166666666667	-0.55217395360814	0
7.33337923226	-0.57364431858631	0
10.36828810089	-1.6552861219901	0
6.6666666666667	0	0
36.666666666667	0	0
36.833333333333	-0.29429712828708	0
37.5	-0.55217395360814	0
24.333333333333	0	0
24	0	0
12.503171480364	-0.86507900392268	0
12.328351644367	-1.416191408927	0
12.778890250051	-1.0538354750778	0
11.5	-0.28867513459481	0
19.666666666667	0	0
19.833333333333	-0.35154628884586	0
20	0	0
9.6666666666667	0	0
20.5	-0.28872883340808	0
20.666666666667	0	0
20.333333333333	0	0
20.905165514021	-0.87509566217461	0
10.5	-0.35154628884586	0
10.333333333333	0	0
9.3280061897341	-0.61041034021496	0
10.833333333333	-0.29429712828707	0
10.666666666667	0	0
22.833333333333	-0.55217395360814	0
22.5	-0.72876886968591	0
22.915493514149	-1.1101467813362	0
5.2020787936337	-1.0219070688786	0
18.833333333333	-0.29429712828707	0
18.925344390347	-0.75760412093207	0
19.166666666667	-0.35154628884587	0
22.666666666667	0	0
22.5	-0.35154628884586	0
13.833333333333	-0.55217395360814	0
14	0	0
16.833333333333	-0.55217395360814	0
0	0	0
14.166666666667	-0.35154628884586	0
14.333333333333	0	0
14.5	-0.55217395360814	0
14.833333333333	-0.35154628884586	0
14.666666666667	0	0
15	0	0
15.166666666667	-0.55217395360814	0
15.333333333333	0	0
2.0948344859795	-0.87509566217461	0
2.2850956781966	-0.60378553647187	0
12	0	0
11.666666666667	0	0
22.166666666667	-0.95506458788032	0
22.166666666667	-0.55217395360814	0
21.833333333333	-0.7287688696859	0
15.5	-0.35154628884586	0
15.666666666667	0	0
17	0	0
20.833333333333	-0.29429712828707	0
20.661339523067	-0.61041034021495	0
9	0	0
14.166666666667	-0.72876886968591	0
17.333333333333	0	0
17.166666666667	-0.35154628884586	0
18	0	0
17.666666666667	0	0
17.833333333333	-0.55217395360814	0
17.5	-0.29429712828708	0
16.258677723681	-0.75760412093209	0
12.833333333333	-0.28872883340808	0
18.166666666667	-0.35154628884586	0
18.333333333333	0	0
17.407988942986	-0.7576041209321	0
19	0	0
19.333333333333	0	0
18.666666666667	0	0
12.166666666667	-0.28867513459481	0
12.333333333333	0	0
15.833333333333	-0.55217395360814	0
20.166666666667	-0.55217395360814	0
19.5	-0.55217395360815	0
7.5	-0.28867513958836	0
23.5	-0.29429712828708	0
21.833333333333	-0.35154628884586	0
22	0	0
26.592011057014	-0.7576041209321	0
22.333333333333	0	0
23.934922518609	-1.0280995368212	0
25.166666666667	-0.35154628884587	0
25.5	-0.55217395360815	0
25.333333333333	0	0
23.166666666667	-0.35154628884586	0
23	0	0
26.666666666667	0	0
26.5	-0.29429712828708	0
23.666666666667	0	0
23.333333333333	0	0
26.166666666667	-0.55217395360814	0
26.333333333333	0	0
26	0	0
24.761501152646	-0.87509566217461	0
24.951762344863	-0.60378553647187	0
24.5	-0.35154628884586	0
33.5	-0.35154628884586	0
33.238498847354	-0.8750956621746	0
33.833333333333	-0.55217395360815	0
24.666666666667	0	0
28.166666666667	-0.35154628884587	0
28.5	-0.55217395360815	0
28.333333333333	0	0
25	0	0
24.833333333333	-0.29429712828707	0
27.761501152646	-0.87509566217461	0
27.951762344863	-0.60378553647187	0
29.333333333333	0	0
29	0	0
29.166666666667	-0.55217395360814	0
25.833333333333	-0.35154628884586	0
29.947484315848	-0.62869436758688	0
30.409983486194	-0.76921735210505	0
34.166666666667	-0.72876886968591	0
34.166666666667	-0.35154628884586	0
25.666666666667	0	0
35.445556916718	-1.0538354750779	0
35.333287434407	-0.57364431858632	0
29.666666666667	0	0
29.5	-0.28872883340808	0
26.834868536478	-1.5356869134355	0
30.833333333333	-0.28872883340808	0
30.671365010853	-0.57276869068256	0
27.666666666667	0	0
38.204670056311	-1.4270134762662	0
38.601589185276	-1.0280995368212	0
38.094834485979	-0.87509566217463	0
28	0	0
27.833333333333	-0.29429712828707	0
36.662074300781	-0.56642454030296	0
28.666666666667	0	0
31.746636025369	-1.1187108767801	0
28.833333333333	-0.35154628884586	0
33	0	0
33.166666666667	-0.29429712828707	0
33.333333333333	0	0
34.5	-0.55217395360814	0
34.731644951192	-0.92970615345739	0
35.666666666667	0	0
35.5	-0.28872883340809	0
30.333333333333	0	0
31	0	0
31.166666666667	-0.28867513958836	0
31.333333333333	0	0
38.285095678197	-0.60378553647188	0
37.833333333333	-0.35154628884586	0
30.666666666667	0	0
30.5	-0.29429712828708	0
36.5	-0.28872883340808	0
33.666666666667	0	0
36.41952417611	-0.77749898599357	0
38.5	-0.35154628884586	0
38.833333333333	-0.55217395360815	0
38.666666666667	0	0
29.657657699283	-0.83081436360664	0
40.168201869811	-1.5356869134355	0
40.5	-0.55217395360814	0
39.925344390347	-0.75760412093211	0
32.994672856401	-0.61041034021495	0
31.5	-0.35154628884586	0
43	0	0
42.666666666667	0	0
42.833333333333	-0.29429712828707	0
43.404176293252	-0.42323554094762	0
35.88498281448	-1.5034830799843	0
41.166666666667	-0.29429712828708	0
41.074655609653	-0.75760412093211	0
41.5	-0.55217395360814	0
41	0	0
41.333333333333	0	0
34.333333333333	0	0
32.166666666667	-0.35154628884586	0
32.333333333333	0	0
39.5	-0.55217395360814	0
39.333333333333	0	0
36.500673817427	-1.6307728168531	0
40.833333333333	-0.35154628884586	0
34.666666666667	0	0
35.333333333333	0	0
35.166666666667	-0.28867513958836	0
35	0	0
36.333333333333	0	0
36	0	0
12.333333329009	-0.57732068917697	0
37.666666666667	0	0
7.9035368819631	-1.2622568520387	0
28.737635378193	-1.2311528923644	0
29.212976838479	-1.0424777721347	0
28.833333333333	-0.7287688696859	0
12.66662076774	-0.57364431858631	0
38.166666666667	-0.29429712828707	0
38.333333333333	0	0
12.5	-0.28867513958836	0
39	0	0
39.166666666667	-0.35154628884586	0
20.347766676375	-1.1439190584087	0
19.833333333333	-0.7287688696859	0
40.666666666667	0	0
42.5	-0.35154628884586	0
10	0	0
18.5	-0.55217395360815	0
41.666666666667	0	0
23.428167819313	-0.87509566217462	0
42	0	0
42.166666666667	-0.29429712828707	0
42.333333333333	0	0
42.744785246826	-0.77776727251482	0
41.833333333333	-0.35154628884586	0
38	0	0
41.542494325991	-1.1832128457714	0
2.6015891852757	-1.0280995368212	0
13.258353909981	-1.6064355191183	0
4.8333333333333	-0.72876886968591	0
15.5	-0.7287688696859	0
15.8687454603	-1.0219070688786	0
16.501535203144	-1.5356869134354	0
14.833333333333	-0.72876886968591	0
12.666666666667	0	0
17.797921206366	-1.0219070688786	0
18.166666666667	-0.7287688696859	0
36.905165514021	-0.87509566217463	0
32.666666666667	0	0
32.5	-0.55217395360814	0
34.833333333333	-0.28867513459481	0
34.999999995676	-0.57732068917696	0
34	0	0
35.169838147031	-0.8650790039227	0
42.285095678197	-0.60378553647188	0
41.877780449001	-0.80261564071807	0
13.238498847354	-0.87509566217461	0
11.333333333333	0	0
11.697267761921	-1.4738194081615	0
12.166692603518	-0.86967323340335	0
3.1666666666667	-0.72876886968591	0
11	0	0
18.535412126967	-1.0219070688787	0
25.833333333333	-0.7287688696859	0
25.268255851942	-1.0280995368211	0
28.268255851942	-1.0280995368211	0
[...]
CELL_DATA 1424
SCALARS Coverage double 1
LOOKUP_TABLE default
2.8689975646996 3.1069901705626 2.0263616511474 2.6111766708535 1.8235682332774 2.9784802376625 2.7934955671395 2.3136197651641 2.7579872348115 2.5882004768405 2.8228260292675 2.4234049595206 2.8259907094289 2.6443987875916 2.670004014096 2.5939631698669 2.4806151424559 3.2023733714459 2.6234535222958 3.1967935552727 3.2515936542999 3.2205574077407 2.9328556393442 2.9468840888879 2.9527759816993 2.9293458338612 2.9485775807071 2.8486102598195 2.520376216875 2.9299026711964 2.968906033755 2.6469219499289 2.7616718451745 2.9429276752514 2.9069056974458 2.7406373606944 2.965158477827 3.2877247412781 2.496545321196 2.734618640086 2.6432377672205 3.0100834802822 3.1456793096395 3.2267550347442 2.8119151074522 2.4430783557566 2.8592804010592 3.2422750534261 3.237906276184 2.1204340452617 2.9642729247433 3.0464078720096 2.7043470142283 2.3516082150135 2.7964175934344 2.6232788713297 2.4912368975515 2.4171622756092 2.8689001802186 2.9309054664219 3.3033432769633 2.8658085145881 3.1195970147078 2.3566231871197 2.6294904923532 3.0870205762176 2.9783659987585 2.9154437236517 2.6710035606824 2.7910318937847 2.9243883270511 2.7179161830502 2.8236346498689 2.6013768791047 2.4032589429643 2.7321361673486 2.8508028055288 2.7652071844971 2.4406976859307 3.0267203093457 2.7907907286454 2.5578925295125 2.725192460227 3.0717395400727 2.5881575162419 2.7872743891654 3.0167463974812 2.8528206226947 2.8536157817568 2.3202624543456 2.7917566264616 2.4229306281047 3.0521744571635 2.6281410254896 2.5104653466191 2.9407516666251 2.3480466386442 3.0428175504011 2.7477807107842 3.0117850078321 2.6535946645097 3.074118218277 2.6641415094214 3.0079658207631 2.8485328740886 2.7047829242164 2.8159008460423 2.7464175126773 2.823886938145 3.0342226452065 2.660970483286 3.212773327494 3.2547660837098 3.0567341139242 2.6614074032155 2.867375776622 3.1283111992009 2.8070791595401 3.1463325315483 2.8753926919129 2.76347038317 2.8891261368862 2.9411887567398 2.8016665562011 2.7358053760814 3.0616818909134 2.7539816738372 2.7857343905337 2.8958273353615 2.8232237038777 3.2975674429736 2.7507658439895 3.0387380087716 3.2429582928283 2.6443243816737 2.9249602744574 2.8773906274196 2.9614660125907 3.1874267954375 2.9201499953505 3.163564265142 3.1010701487554 2.7230524061302 2.7208615307538 3.0733104928123 2.9458815944894 3.3721637630057 2.975370410224 2.7453562501509 3.1925737474476 2.8623287153295 2.7533977604407 3.0119643954607 3.2074428894541 2.7792854120921 3.1815662101151 2.5886534162852 3.0494565625514 2.9862981286203 2.8566867258541 2.5736436045764 2.8105951157882 3.0965921434767 2.3058761738576 3.3699539959209 2.9842064675234 2.7461494631761 3.0720237434149 2.6164909039964 2.8805980577592 3.2191617665221 3.1662719024554 2.9060806149188 3.1889502200266 2.6548686137409 2.9126432108173 2.6618881318995 3.18135156633 3.2081597318409 3.3643653576528 2.6012359543842 3.0864018284522 2.955756401184 3.0886086044262 2.966504282371 2.8723371376552 2.7169730332 2.7576414641652 2.7555205132579 2.3964212638733 2.7858388234456 2.7542737890216 2.896626322544 2.9133068244651 3.0810050083016 2.2401417264963 2.4226964619744 2.8038715414714 2.4754818640023 2.9742827953526 2.9348158585775 2.8159260440963 3.1756903832948 2.8931863599894 2.3008644907434 2.5143564712309 2.6278953415513 3.051582599218 2.7211032178127 2.962976943628 3.1956130103244 2.9423948297853 2.6646473536033 3.113578860475 2.6689209576689 2.9593126416773 2.7996951829617 2.6968394537458 2.7405205765646 2.437503127242 2.8634287967971 2.5672961835955 2.5489877459621 2.6597257125843 2.4873548548308 2.8278780174216 2.8481445521287 3.0581932693451 2.8730391118687 2.7472080310165 3.0484050046635 3.0988393648297 2.5577027043487 2.8597665601937 2.5321522453123 2.8935553205951 2.716123881822 3.2088786905824 2.9295673642347 2.9524716573448 2.8652573646704 2.6749571217528 2.7029595904315 2.8706685257425 2.6936328613703 2.9642533688237 2.8735817311128 2.2046676160436 2.7288468362297 2.7454314237762 2.9723378066076 2.58456054533 2.7285528244505 2.64407857751 2.7897480725024 3.075053881056 2.6689302453223 2.8657186395778 2.3085140263318 2.4574659264113 3.1484786169924 2.316485770116 2.6229613487219 2.7829492709271 2.5694521563147 2.8066078565249 2.5417179423677 2.6103461162466 2.7225043079329 2.2577538674151 2.5562355174558 2.6548405044446 2.5387986227754 2.555793092636 2.4704994435912 2.657938795709 2.771204912589 2.8040593458959 2.6463491327078 2.6503788813591 2.7951005804456 3.2010931387174 2.8854400603718 2.5419862667933 2.6740399426244 2.6587041210285 2.7815849854699 2.713575195325 2.7991860810933 2.831217828336 2.6804190345582 2.794651090066 2.8193071165001 3.3868033896369 2.8572656419985 2.9222077726168 2.7724898259103 2.8143099727424 2.844700093408 3.3794020519995 2.8704062869808 3.0284505073774 2.7771528047481 2.5743791442205 2.9642842196276 2.7772672738095 2.828502326641 3.3645115318478 2.9460977148427 2.9541757033231 2.9401577165196 3.3333021089823 2.6835712037302 2.7988029073958 2.6090023839574 2.3901320858242 2.9050947147836 2.6129097347201 2.6665546511419 3.0853803858451 2.7088390774006 3.0200908628151 2.8243893981962 2.9835888009589 2.3425527283765 2.4011503196622 2.580023881918 2.5529928709839 2.6412029303417 2.7443852729286 2.5735329897727 2.4987342927212 2.6249407833774 2.8332691325807 2.7939432033935 2.9048831284566 2.3722515508331 2.2477453788956 2.8765743298233 3.2415664247983 2.9643933067018 2.8205326101784 2.6644169444066 2.6875084938325 2.6293101116414 2.7900870384918 2.6889436268203 2.8685016646267 2.705922756686 2.6926251387735 2.931281097317 2.5314638270056 2.2833270387437 2.5787714682745 2.5037235405014 2.3440819691995 2.7098528492451 2.7042788144924 2.4089287346946 2.9429959610036 2.6328072467742 2.4917471852821 2.5492006105688 2.6723872766607 2.5749959847819 2.6515078475282 2.399354682515 2.885885468948 2.7768097815362 3.0071190998934 2.7187399732487 2.6632253152196 2.6963837103272 2.916184214166 2.7941316751673 3.0242016963745 2.7515402920721 2.9401764064406 2.9044389922077 2.6776378004124 2.7585414654765 3.0265849829849 3.2054273467128 3.1442231400759 2.6102012747284 2.7733674228703 2.8188032748075 2.8907445919444 2.5621740610834 2.7562155700401 2.9037076806312 2.7016836986761 2.6089102028834 2.8152604333885 2.6292553033708 3.3826691474435 2.4888220525454 2.5177796308082 2.3708620651714 2.5984976548525 2.2731851828133 2.4641678492092 2.3091956076171 2.3675276097893 2.5715962516283 2.3466882704024 2.3201555449552 2.8744067890787 2.4703125895384 2.5491324832005 2.613250013633 2.7025531318665 2.5706478050707 2.6718457807072 2.5263233621608 2.735353858285 2.6797758922867 2.2721440329014 2.5176756348488 2.5439522707208 2.3789557715731 1.9837080327614 2.5328712627032 2.6008035847578 2.7837465652819 2.6478878452512 2.7943384489552 2.66194286891 2.2110749468228 2.7713816344927 2.6091003086683 2.7451972800156 2.5588229714349 2.8649508081024 2.5767548987001 2.8970406391483 2.5842853975663 2.2617874833761 2.261395022107 2.7167210742199 2.7143688345204 2.8055332080465 2.5826054941163 2.4146660224478 2.2232117676932 2.8215014006512 2.6261045073345 2.8450162970547 2.6443074061833 2.6965610416927 2.4522240004752 2.4503194855333 1.9035924332275 2.572543607218 2.4213483542602 2.050134445312 2.2047760440849 2.4205785520916 2.4760360123476 2.5017613616846 2.5450065806677 2.9085824529269 2.4471599151264 2.2315056393749 1.9290713115565 2.1636519102375 2.6329426316697 2.3983467633133 2.4288225351931 2.0615666471852 2.6909462422957 1.8058568459444 2.7416770578378 2.5263381088095 2.5552292007331 2.4976328741437 2.7700083362904 3.2538003326322 2.377772745321 3.0638395126216 2.5503483460516 2.5589444545442 2.5593795300698 2.6432680107658 2.3864053674157 2.610778308871 2.5512797487793 2.5691495197065 2.2378957220998 2.652205912254 2.4650464886313 2.6728470739372 2.0785900983171 3.0740205766611 2.5517352939017 2.486609239545 2.293799957919 2.3937905978324 2.5356152856272 2.6601189316567 3.0106090396836 1.7109361471575 2.6914005637118 2.6369805343713 2.345650433269 2.4564530181298 2.0356653154107 2.1473622753532 2.5632318560747 2.2760096527791 1.8600391441935 2.4828275408968 2.3625135303676 2.8138725992802 2.0993178654625 2.3233436797835 2.3001887175113 2.3800783415689 2.0713363208108 2.0920152621203 2.4986460700607 2.6566701257746 2.4922189186883 2.4457129410995 2.2991080979585 2.3381361780857 1.9932986566142 2.4945455142362 2.2172956464867 2.2068214349112 2.5074963541233 2.4005468085123 2.5925153619374 2.3725191660279 2.1518769976254 2.5250929609867 1.8328102521675 2.1748619970526 2.4216115523807 1.6303206299027 2.2727663732971 2.2659314919879 2.5587123843137 2.3625256487246 1.7802780824358 2.5655762929776 2.5471660476121 2.6151300492303 2.6338575886776 2.4839133461001 2.3934465245978 2.4696093383126 2.446902740491 2.4583583662856 2.0990243223834 1.9851963301 2.6450271936676 2.526750161289 2.3278535408045 2.4117570925816 2.3415609318062 2.6904111385062 2.416992775555 2.2558772703672 2.227570369046 2.2639464331246 2.389904495966 2.5588584187373 2.9543133900906 2.628240880508 2.0110620721341 2.4798486581047 2.8386617552771 1.9735001432018 2.4101905232335 2.414165703244 2.3012371585449 2.2979835635282 2.6474248546985 3.0368870633893 2.3888625386011 2.3368014490504 2.3313462708499 2.3860640293256 2.7202602293876 2.479532094416 2.167260206399 2.1541815011353 1.6678914254647 2.1026236180846 2.188756312592 1.7716356755723 2.7761382763111 2.6388979971268 2.3388244897666 2.26502752722 2.7076837839439 2.6240136064696 1.9650897384523 1.3127522951645 2.2681400212022 2.3256020025606 2.1220499243215 2.8206727689557 2.047460838038 2.0083892508973 2.5474516170553 2.738972402283 2.4280896306441 2.3105609801431 2.4077915460631 2.3371234697791 2.1546522957514 2.4685956253613 2.1584431671005 2.3432955484574 2.4861486814352 3.1966499432855 2.1462215592706 1.9776659158892 1.9478514262154 2.1826036565169 2.0901389415911 1.9333225374075 2.1850889041003 2.2305676762006 2.3061456921649 2.0426574041693 1.9695899192625 2.5201012383361 2.4228844093049 2.5976572416725 2.3034159098717 1.8175867736363 2.3972763033042 1.6922144733574 1.5710980601782 1.8657812408833 2.3346398968577 2.6992296322089 1.9737933940454 2.7090363093373 2.1152419507944 2.1622923284004 1.9769590840705 2.2702132892502 1.9824995041795 2.5237797371281 1.8940195665691 2.2545703997583 2.0752806388842 1.639432341828 2.0916631294087 2.1423856160317 2.2620682939309 2.2181250291971 2.282758056408 2.0591115727587 2.3736416577901 2.7661568298783 2.0260264903291 2.2994720478606 2.2053578541346 2.165362646891 2.3548399164438 2.0980670813931 2.1088952635074 2.6577594330379 2.4414903231247 2.1390024981006 2.8582445787341 1.5646859194099 2.0141014547748 2.6834665213756 2.080182528447 2.3056155362918 1.2874949459763 2.0429489912025 2.7678803533108 2.1658457460184 1.8361571523203 1.9111904576022 2.2870868502907 2.1212359928276 1.8663022319389 2.1378395441819 1.9419400126696 2.0831737388349 1.9337115970062 2.3229713856281 2.0488227759514 1.8983705099654 2.1165027185041 2.0668052908831 2.142807349215 2.0103161468718 2.0296688001071 2.9009771248676 1.988953175107 2.1236802073519 2.3187228769533 2.1535734321452 1.9944934907434 2.2243305297404 1.724949737674 1.9274243083594 1.8061774866366 1.8779405454654 2.0496680722385 2.72315045202 2.3045155834315 1.9595713523468 1.7133673424589 2.3838803293964 2.0517099631135 1.3647363267968 1.8120504928679 0.57085645749802 0.74562992130843 1.9913866784989 1.9365790458911 1.8271783783426 1.3692980103203 2.1219577745641 0.8519444761219 2.5293205523784 2.6716829825609 1.9375289200036 1.4199976549439 1.2101739892782 1.8154659971899 2.5240704922108 1.6325531013435 1.8132091172703 1.817994131655 2.4343767689036 1.7823801712874 1.8465612873582 1.9808267437297 1.6560203241741 2.1253333702444 1.9099295032062 2.0680576807252 2.0251794140185 2.0722924285196 1.8624025283896 1.6218167194901 1.9960365892029 2.2863911051746 1.5413232350958 2.4666904097437 2.6131089992859 2.4799693494807 1.8503725254257 2.3026625459069 1.6330037600425 1.6397955959039 1.7033532823265 1.6849982306469 1.9207612806287 2.0910732103603 2.1279643991493 2.8959034014392 1.7201672084983 1.6593176700758 1.5175571586709 1.5869319336555 2.3756729539203 1.9377711350689 1.7460615466501 1.9424296545167 1.7009612588691 1.3578677648108 1.345420033826 1.9286986502793 1.5444283651055 1.474268115298 1.5472805243987 1.8060844311595 2.2230525815936 1.2400552100647 1.8585429289377 1.2062153271125 1.4791826156208 1.6103237474607 1.9745269314012 1.7358278664542 2.2135195161244 2.0208690291009 1.9998160773089 2.0953216538786 1.6618758442083 1.8440962965907 1.8546624082636 1.7234807252463 1.8183523061905 1.9224469559252 1.491372508029 1.9998538777345 1.7356389210993 1.6337180377528 1.7747285283138 1.8343657247892 1.8442916993375 1.1491208223413 1.9819591350471 1.6382720004885 1.7537349364691 1.503277198214 1.762540141387 1.4751539291656 1.4368373104666 1.6292312906272 1.6702957416486 1.4718564867548 1.6892663671289 1.5850370078698 1.3485337454476 1.4845216974723 1.511690060166 1.1691501736393 1.6693615354289 1.2677413695327 1.6943114417112 1.5259272640394 1.5565669388542 1.2760905959479 1.3562868066353 0.92920002325425 1.2175311769118 1.4399351710811 1.2626791010069 1.1688522883752 1.4721774421522 1.3725497776161 1.5471151013695 1.0816228919219 1.7108549423447 1.8937486309394 2.0417526122468 1.6564691868946 1.429411588728 1.4861390729648 1.583611503671 1.4184407709179 1.3162422343582 1.881574723461 0.93702792257083 1.475676092639 1.6502868926128 1.7539558611497 1.654498744306 1.547713619852 1.4303731203629 1.4248979315781 1.2002995276994 1.0845044868558 1.261330694035 1.4451609661761 1.318131239767 1.4702075426871 1.1078848068842 1.7516144007746 1.3880982202949 1.6827444829985 1.7552908921095 1.3265381608706 1.3008788002235 1.5712862510351 1.5782949785676 1.268315649621 1.4044027462225 1.3196921699888 1.4559646429689 1.3220509727966 0.78589914374853 1.2192653215094 1.5130152199632 1.2464491285849 1.018115679441 1.4433500892606 1.2989009123188 1.225783096893 1.124239572185 1.4397900108642 1.0600870384639 1.1790187632217 1.2058376131157 1.202112764747 1.0193343277654 1.1296708513508 0.6850344723342 0.87997092365481 1.0287625617805 0.89678277421647 1.2438558791684 1.3124064988314 1.2096088020441 0.9630132402785 0.73337741509621 1.0418223184445 1.0853560999296 1.591604981282 1.2108588043749 1.0748145932943 0.96656763517991 1.1538525639806 0.99015532948557 1.2083909423923 0.42984574540681 1.0890774727477 1.4799485297239 0.89248232218658 1.0762205706722 0.70156041911215 0.77600458921829 1.0072494480623 1.2304040055644 0.86480004515805 0.9111817824874 0.90723346150217 0.62770386633646 0.89679933621151 0.4471422331283 0.39265755651709 0.4442640751874 0.5812799289195 0.76109049258943 0.82486617996971 0.80296602241225 0.69838052790446 0.74888888955109 0.8370473191627 0.85218095106062 0.41570452488484 0.72208417836976 0.94616817724323 1.6563017817525 1.6407893151738 1.1424868686933 1.3251315315955 1.0594204395264 1.1788412341303 1.1411854248493 0.65784412837311 0.76584006258508 0.6343844065723 0.63932103266885 0.63275614721157 0.76124030154729 1.0408537504903 0.64176410611392 0.60105516320351 0.7240794840614 0.82841683506588 0.5497666959635 0.53359970520281 0.77969445271662 1.456569313627 0.74432762542288 1.435778246811 1.1274613557404 1.4676602296015 1.4989412975804 1.370643150216 1.3313320094804 1.1339485925803 1.2470356433564 1.24709954296 0.79534883251471 0.64905615615644 0.46820096666861 0.4063353157762 0.41271580337411 0.86610931077894 1.1613252585032 1.0637649881486 1.3350021466855 0.75879159257088 0.85059094683801 0.94556517831138 1.2794521242585 0.98871718870447 1.2304609328883 1.082209977027 0.9007624938937 0.75984690378942 0.68435929379888 0.52461838628901 0.78331239024529 0.4452981742148 1.022730311772 1.0317128394349 1.4288879624421 1.1348461824143 1.2404047389176 1.2207781259175 1.4799711851877 1.0302737825188 0.95956988587266 0.59339331107953 0.92331090701273 0.85847687269501 0.92742152595872 0.90102410160599 1.0813762076004 0.50310232866041 0.63872862413068 0.692166247104 0.56942990417588 0.77289025228238 0.44223594791352 0.53135240128911 0.8002533828964 0.89025565138611 1.0289706253237 0.64420764133298 1.140635188726 0.7235531622406 1.3219983328231 0.97030869878901 0.7397169368994 1.1262118083238 0.9176570779125 1.0815237275462 1.0101958138473 0.49707554978518 0.41170713739048 1.0630747687674 0.70069647257523 0.72130371672051 0.60789402066743 0.64794686234225 1.1030868749846 0.49083211670581 0.64111336578334 0.82401426781239 0.70085053394954 0.95494961917566 0.88164453262829 0.57191082656531 0.46191593336243 1.0984881604933 1.0240581332565 1.172937626737 0.86238536446346 0.91705877052442 1.0150185296374 0.93484858299955 0.75908385290114 0.83231965979632 0.95074365634164 0.55475804388025 0.43660117208579 0.80810506191284 0.50214995534508 0.75967329342578 0.7689505161207 0.38823833834196 0.49960985890911 0.54823459012454 0.61239717250653 0.84384889386157 0.94979544223085 0.7567860709938 0.44742704697333 0.85722102083571 0.43374689370237 0.42809746483183 1.0343599598138 0.52062274840034 1.3432643406111 1.1673214626337 0.71552686808661 0.76860425831894 0.49380294858398 1.1292841355939 0.61922060301367 0.55847362250711 1.6679014644887 1.3119538452364 0.59707609576993 0.74922401632092 0.68899280364578 0.48720274216014 0.44802497165163 0.4918627071487 0.40315951674019 0.54168682312335 0.399762726728 0.46310996145469 0.52045845822298 0.71347482547161 0.58326177364445 0.52148807903157 0.40207639446811 0.65154674167946 0.4430708366669 1.6363109770782 1.2905231933075 1.129399871876 1.0133150689691 0.46058895249717 0.5169334668669 0.59610014794067 0.43384256571437 0.41421535821157 0.57017501375995 0.93864540809565 0.71707576798219 0.68079834650464 0.56078386906042 0.40757640023512 1.1375404339988 0.81841412452428 0.55294028588649 0.41771358564289 0.59858409198503 0.4616242646292 0.48876485143081 0.40598002386973 0.42492461498594 0.56604884851386 0.71852551949904 1.1137436357629 0.63440515477144 0.58285033940706 0.67716321769009 0.78283510952575 0.71034729299382 0.40337870635521 0.63888243821631 0.7846102366988 0.84729482601889 0.8886649343786 0.95836896357228 0.90135188796459 0.79980748034599 0.73597493320191 0.85842439153561 0.61514428107203 0.6525727525652 0.58790656954217 0.84082820546716 0.44324017729599 1.0970445349263 0.79345965583661 1.2573319915808 1.1094956713434 0.70733617454392 0.66755246923859 0.70525302128239 0.53732258489504 0.62753951942311 0.3987375675716 0.86510382579243 0.62707671795893 0.72509225505345 0.86023721647745 0.77081931229293 1.1083486355648 0.64976265046891 0.68881797474931 0.77376555087733 0.74754502548533 0.63218576711297 0.46228432006979 0.52968831485314 0.89245993673368 0.68313982373544 0.92868845988025 1.018037033937 1.0135145371334 1.4217187374693 0.40499555697751 0.55222338100722 0.88943831077167 1.0340226648143 1.5211025963094 1.3851444188083 0.81035858722755 0.69415425286383 1.7996676212095 1.6217556096794 1.3489106962282 1.5348379905848 1.297354118839 0.73829543541697 1.5857011755505 1.3265381360759 1.1896582403348 1.2893188490583 1.0982243942348 0.85465367808806 0.94230896490933 1.0907276917735 0.91462706599255 0.93007578309965 0.83897446636357 1.2157687304228 1.4916645584245 2.0257172781964 1.705606774702 1.4375454777449 1.2137334642657 1.1179977947947 0.69124089844868 1.1958249089954 0.98391970862643 1.2835633657164 1.0093714751504 0.98092481890483 0.81965386579507 1.1312645761891 0.78398940652788 0.7241367624195 1.0612836634526 1.9613807880094 1.8174114523689 1.9455877893974 1.5516245293561 1.015777260144 1.2626169987865 1.3979167370207 1.3291675333289 1.2727047349404 1.228360362826 1.2385773239867 1.376742744242 1.1365405183427 0.93274373790176 1.8117887395605 1.6072587999762 0.65409556092661 0.36493248941053 0.53108627907173 0.4340650455483 1.2292629551159 1.473372681347 0.49742899850816 0.43503276822686 0.50225161