# vtk DataFile Version 3.0
d-3__ created by libgimli-v1.5.0-1-g5991b6ac
ASCII
DATASET UNSTRUCTURED_GRID
POINTS 1483 double
3.3802423101098	12.435481574566	-0.57001420684378
3	12	-0.2857142857143
3.4959596309848	11.998298039034	0
3.2490070092203	12.168560129388	0
6.0395510135596	13.367156253372	-1.2757999763971
6.5930002103947	12.023472734859	-1.2922192071349
5.4998599382803	12.552571297657	-0.59337769664261
5.29662096318	11.932351047571	-1.5392209346082
5.6153020589615	9.1440579133635	-1.0774777831171
5.7237069713611	8.5589744845549	-0.30827017969781
5	9	-0.2857142857143
5.3151026533923	8.4249591108801	-0.38240156963578
2.3178923476779	4.1926464382665	0
2.5373292327812	4.4716333182052	-0.48281884804687
2.3342974478463	4.0018571812202	-0.30572640106363
1.9994701911036	4.4258543307655	0
4.8968211033092	12.507755029533	0
5	12	-0.2857142857143
5.2932790228536	12.494788035524	0
0	0	-0.2857142857143
0.54768630893449	0.55020446432687	-0.60775225926193
-0.16846798780902	-0.24002860812406	-0.65332445545953
-0.28063481777066	0.41453578455018	-0.44890469943706
7.7	3.575	0
7.3102059000399	3.7470939102263	0
7.7	3.6732286664853	-0.53772532608145
7.3176226410905	3.2857280588852	0
-0.7	-0.10798167686939	-0.47517111104905
-0.7	-0.57707899562378	-1.1376990549501
-0.7	-0.61986630133594	-0.43486724047509
6.3962361866998	10.611290418241	-1.3182185489848
6.565939673393	9.5694509864085	-0.57379796778735
7.1295911592009	10.496363016677	-0.48219980545192
6.3839624611364	10.341052129245	-0.35036617584397
7.7	14.3	-2.5
6.7623683783591	12.987112326146	-2.233077027779
7.7	13.059020885286	-3.3539705522597
7.7	13.327367479896	-2.129915020979
1	6	0
1	6	-0.2857142857143
0.93236760237426	6.49128333619	0
1.3454573625665	6.353105459937	0
2	5	-0.2857142857143
2.1684298754346	4.7403793023811	0
3.0226729813355	8.4836106439452	0
2.5164096947204	8.910651700233	-0.41109082170818
3.4071201441719	8.4167381876838	-0.59109415332551
2.5374808587914	8.1383747261781	-0.35604109466584
6.2778911301719	14.3	-0.61136458754231
6.2225356773765	13.691717475418	0
6.5208076177088	13.495118289851	-0.49928801204061
6.7358646795693	14.3	-0.39005656748015
5.7965188279432	13.281940723964	0
5.5320359851605	12.925291312368	0
5.353113789845	13.264183036004	0
5.5919457801018	13.101154188917	-0.33537516396337
7	10	-0.2857142857143
7	10	0
6.5010306427949	10.010760669106	0
6.8196744207924	9.5136576917357	0
7.7	1.1375	0
7.7	1.6430719769933	-0.42557297445049
7.1939383721229	1.4724531054162	0
7.7	1.625	0
6.3572581294301	1.4772201134971	-0.96507376287322
6.5574763981385	0.84898833643366	-0.48332647821142
6.7774291048203	1.7003141153393	-0.4123635555875
6.1433933962903	1.4220674799247	-0.28622251631329
-0.7	9.1984657118068	-1.9278839451739
0.33291529395702	8.3305676904572	-1.2970017952003
-0.7	8.1442617177323	-1.0898260028896
-0.7	7.644268062563	-2.0766032868031
4.508194357046	8.6258793740749	-0.60770874662543
5.0095189690676	8.5009469809039	0
4.7609249278557	8.7686419230913	0
6.2306672701993	2.67753718	0
6.6360398560532	2.4670661479797	-0.44686919005428
6.4910302172834	2.4939022421641	0
6.1550873755842	2.4572757142813	-0.33684154297057
1	1	0
1	1	-0.2857142857143
1.4901571161019	0.99574153349402	0
1.1736530561382	0.72346383359363	0
2	4	-0.2857142857143
2	4	0
1.6440539242474	4.1532454240512	0
7.7	6.9501255673919	-0.74418826283982
7	7	-0.2857142857143
6.7521552376889	6.497772044976	-0.66059363300197
7.7	6.3887218416049	-0.46884913673037
5.9482896260331	7.5800048202495	0
6	8	-0.2857142857143
6.3095291646476	7.6896230263426	0
6.1432247512519	7.3579252770212	-0.41388970597853
3.501272057481	12.437082442362	0
3.3297831413816	12.805427976196	0
3.6823393063421	12.851671876304	0
1.3671388209093	10.633374397873	-0.4152980605108
0.95248763025238	9.835503527633	-1.7808732395437
2.3518021577517	10.495200039554	-0.50930668321109
1.5373497846005	10.021005779616	-0.41781002197689
6.2054585007625	14.3	-1.3884356875417
6.9442913034148	14.3	-0.89278753613404
1	8	-0.2857142857143
0.54167473049383	7.7707286368021	-0.37916050195481
0.44975345341211	8.3808810318019	-0.31136669048163
1.022076618805	8.4121844676845	-0.45670843222423
0.89173681858685	4.6122796653579	0
1	5	-0.2857142857143
1.2386083631299	4.6841794176855	0
1.3923592539172	4.7130963353432	-0.25978315417498
6.4242299347383	5.6840176993625	-0.35514079575845
6	5	-0.2857142857143
6.3424541740313	5.2754910113697	0
6.0447933133998	5.5049876953384	0
5	2	0
5	2	-0.2857142857143
5.5190673049038	1.9208326821789	0
5.2306444928855	1.6547875838902	0
5	13	-0.2857142857143
5.257359886178	13.540476325965	-0.63012071696907
0	6	0
0	6	-0.2857142857143
0.066757795936057	6.5008369551487	0
0.29243888553297	6.1743316976873	0
7	9	-0.2857142857143
6.5033796411008	8.9981073418213	0
6.5607922823332	8.4440251373986	-0.63122800754088
6.811726958696	8.7028726276344	0
7	5	0
7	5	-0.2857142857143
6.4986646723997	4.9192017057136	0
6.7141996182955	5.3303468264748	0
7.7	9.5988491781319	-7.4736716195817
3.1507199964473	10.394874003632	-10
4.8663216648816	7.3792654266676	-10
5.1015502438684	11.553440122249	-6.405163284031
7	7	0
6.9589015254993	7.4884372736447	0
6.761634669635	7.2408783569561	0
6.0574437090791	0.20878539066113	-1.8779478182653
4.9838025543493	-1.3	-2.1179854334408
6.0308685444023	-1.3	-3.5425074203685
6.440522236286	-1.3	-2.0103523001383
3	2	0
3	2	-0.2857142857143
3.0105846506	1.4855923993349	0
2.6480485575569	1.6700894103009	0
5.0527203000088	13.535479310798	-1.5373151531841
5.0246691847863	14.3	-1.036131499603
4.1300067609037	14.3	-1.2024507502556
4.4744197407865	13.547407617085	-0.63586628370479
2.5813517996865	9.6286485974984	-1.0236151505326
2.2955236368793	9.5881134365907	-0.29154811067367
3	10	-0.2857142857143
6.4248505083522	12.522044346884	-0.42559946143008
6.465073985677	12.51782996062	0
6.1644652963082	12.36965297069	0
6.3832046574853	12.135664356038	0
2.9908655166747	12.498069465114	0
1.984703560175	7.5906357794687	-0.50777967523709
1.0508409188237	7.354634772545	-0.95680796450018
1.4515039911109	6.5829264157992	-0.56173008002516
1.3866216751759	7.5118935788728	-0.35488362790971
2.45	14.3	0
2.2168273415577	13.627179222019	0
2.4554693735383	13.497784276817	-0.39727655195048
3.032551925238	13.762466584345	0
6	11	-0.2857142857143
6	11	0
6.4843452951013	10.966514281357	0
6.2440599782187	11.234710090977	0
5.5	-0.5576923076923	0
5.247952850371	-0.29481663567353	0
5.5452342683804	-0.096294524539033	-0.49623355575102
5.1016398375367	-0.61489919294387	-0.38960315167385
2.3232496140345	4.0110297188843	-1.3835068702753
1.6586320571652	5.8268322896535	-1.5213554090482
0.71002746520551	3.976198472286	-1.505315421377
1.3296414347056	4.9089994064226	-0.82629172929831
5.6	14.3	0
4.6510156691765	14.3	-0.56274723813486
-0.090060726359069	5.5363033123106	-0.44581840212762
0	5	-0.2857142857143
-0.38456492153953	5.1805342841446	0
-0.7	5.0205501441189	-0.32507149572551
3	13	-0.2857142857143
5.1848675157348	3.2965660830064	0
5.4046165570399	2.9501485228537	-0.43988698776777
5.486289771732	3.4981838484395	0
5.4682750147717	3.0660382780841	0
0	8	0
0	8	-0.2857142857143
0.5178658825659	8.020802151125	0
0.25864598874121	7.6639427314904	0
6.7098208972434	7.2950601162224	-1.3269022195366
7.7	7.949747446039	-0.91833665053736
7.1577047253729	7.4844276204668	-0.64272934527953
4.5892004575887	3.5369189576522	-0.55981654583505
4.4420188491858	3.4660037233365	0
4.711527897636	3.7375259681419	0
4.3494632088922	3.8023533541114	0
4	6	-0.2857142857143
4	6	0
3.9913416390327	5.4988534517732	0
4.5093195747582	5.724109532591	0
1.4	14.3	0
1.5	13.55769230769	0
0.89284349994875	13.714781914708	0
1.2292962491126	13.670420041977	-0.37788942865261
4	9	-0.2857142857143
4	9	0
4.5502440226935	9.051086551406	0
4.2963154051231	9.3907765114078	0
4.5321110402369	7.5028925212181	-0.60552533206341
3.5085861108931	7.3893844432383	-0.64873189634878
4.0050480592533	7.4977657988521	0
4	8	-0.2857142857143
5.8961095330637	-1.3	-1.0125722125019
4.8982045728458	-1.3	-0.82217786726149
5.2296982103621	-0.31621891710017	-1.0679345669244
4.9010483556055	1.478997710586	0
4.5631533182214	1.9074133665015	-0.41231302454656
5.0320642355688	1.4518180616801	-0.36509190625555
3.5357179442866	0.46434418042464	-0.60031716899974
3.9407498163335	-0.4411178910574	-1.1087857494349
3.2826824657074	-0.47747544834602	-0.50866572047373
2.802260468126	-0.22902113419037	-1.4542342115515
1	13	0
1	13	-0.2857142857143
1.1191337005982	13.329221525091	0
1.4884720276527	13.02962190928	0
-0.21681247778723	8.5792000107362	0
-0.35118339610893	9.0917088673227	0
-0.7	9.0968147603684	-0.35256881313688
-0.7	8.9375	0
0.51662331659314	-0.40156299802931	-0.67799391089861
0.13474046208011	-1.3	-0.85683826964205
-0.16941603187845	-0.57512411281067	-1.4019543009948
6	13	-0.2857142857143
6	13	0
5.8068477026831	12.499749736815	0
6.1890713266052	12.67695534294	0
2.5984255358496	5.4578875982232	-0.67264342113488
2.2172109403706	5.4325217687574	0
2.4824672258873	4.9705265694472	0
2.6598112065826	5.3330483814808	0
-0.7	0.5146532048839	-0.51418317722913
-0.7	1.0492756199945	-0.88024243711367
-0.37698118088761	0.89350663208132	-0.33360419980628
-0.25096134668857	0.95145340086689	-0.90448711690516
6	2	-0.2857142857143
5.4002158317804	1.7678073061348	-0.50898482673054
5.8183999242367	2.5164331321023	-1.0840550371572
-0.13917028340788	5.5182991349521	0
0.31578338747353	5.7567158690792	0
6	12	0
6	12	-0.2857142857143
5.513035862904	11.994753403328	0
1.5285536174902	4.2362319729344	-0.43851980589517
0.57100063419133	12.499134596467	-0.56842257570583
1.2565986295401	13.42724014175	-1.149557674079
1.4486633887383	12.69302170761	-0.31714242590465
6.65	-1.3	0
6.903739311401	-1.3	-1.0953527719967
6.3980205255852	-0.38130956989248	-0.5855507841991
7.2175457166608	-0.5710098692386	-0.51938212652516
3	7	-0.2857142857143
3.5055774955602	6.7395375676091	-1.4094768265058
2.383927159844	7.4535505157878	-1.0620490471275
1	4	-0.2857142857143
1	4	0
1.2222221827385	4.2954008280594	0
0.82345085295407	4.2815033897546	0
5.6	-1.3	0
5.790373644402	-0.65252487431205	-0.38521635467031
[...]
CELL_DATA 5483
SCALARS Coverage double 1
LOOKUP_TABLE default
1.5120192530304 0.75745409027651 1.4172982152445 1.5807911236723 1.4526072827524 0.89783221350618 1.1482823222789 0.69273644063093 1.1248997520463 0.22291938930174 1.8710893852254 1.6839631686151 1.5076130193136 0.7313386397333 1.2532728883513 1.7998153080447 1.0033654820982 1.1611653990187 0.63968471051517 1.6617251797163 1.4283300979163 1.7181611755765 1.9143853467045 1.0870587895314 1.6089229305643 1.3988747637988 1.2389246254868 0.59354139198945 1.418318625775 1.6783207184227 1.5932333221506 1.7134050017916 1.2163276109261 1.8078848514656 1.492174178805 1.7764962482181 -0.36073959844253 1.8117001384821 0.35948643862926 1.729367659337 0.63188066963424 1.3775640120773 1.3950282455093 1.4708525925972 1.3258583408622 0.8959555741417 1.832694978861 1.1083725652704 0.97172954426161 0.58180902508949 0.69984343003645 1.2936415906705 1.3864661356733 1.5292120958469 1.6848072282814 0.97621700220528 1.5236137646642 1.9177329146403 0.86068654835484 1.8445245727886 1.5360487894939 0.71443175974248 1.4143770071532 1.531088634167 0.82429662037524 1.6073086731896 1.1968866730194 0.67029980358147 1.7153713051086 1.5976297712225 0.84804356258573 1.0969160049702 1.8167921976296 1.6974511303591 1.5519883194594 1.0349764308425 0.69200718709321 1.2946954283523 1.9418862734802 0.71433810458628 1.1671922674579 0.82270794721753 1.5006376934456 1.2112668588345 1.5050135288424 1.0191842295022 0.62627601504036 1.8060497201861 1.7785905942014 1.5551375226014 1.205231211581 1.4054790090061 1.2893532588518 1.2246506485358 1.457896891137 1.6341755541609 1.5909605140524 0.98065530322802 1.6528399325324 1.7075256085978 1.3031371986422 1.8009046740855 0.98840172675382 1.6040131873142 1.1526849757358 1.5747469326977 0.38881016125472 1.1613799224003 1.8302352250074 1.9088582611433 1.7285620860571 1.2867533474796 1.4897093179255 1.5431115249596 1.167403554762 0.75059680295772 1.0209578835537 1.0533101402463 1.5698680463922 1.2159983691473 0.96705601405548 1.6275597345158 1.2626408786671 0.446572550271 1.3234762052629 1.7900680164924 1.0756051858543 1.7983900702514 1.3369541757877 1.5568090747841 1.5118843422522 -0.16649368268284 1.0993383644524 1.4379045984485 0.83643678913318 1.6008036956807 -0.34847378469027 1.3781237216982 1.3854445729508 1.8725657339486 0.59807926921889 0.19197902700997 1.8017462484569 1.6937635199238 1.540601071933 1.4258963610108 0.89132605196145 0.79691747674406 0.97871321946249 0.59036253950262 0.4351141543305 1.870837259558 0.81595626218249 1.2136471312406 1.4120267652986 1.6364899139284 1.5209978002022 1.0581091532157 1.7350543610211 0.84640261368211 1.4026686117203 0.79015679230072 1.031793211128 1.5968982885464 1.8784732718296 1.6633095106486 0.60544373254146 1.8621148406124 1.4547378919963 1.7860105041938 1.5925105451978 1.1838789765956 1.3381314445802 1.8517640187835 -0.010970335316714 1.8729171492345 1.920141920889 1.7769227355128 1.6883795270609 0.18891392235699 1.5622124316068 0.42265300113641 1.1319810178164 -0.053246925731125 1.2221000999056 1.9011979534119 1.4044527418656 1.5776566489599 1.8371151226497 1.3393742984406 1.8786333737132 1.3415042826953 0.7315779710395 1.6155809619005 1.2993961860568 1.0870161227631 1.6519057616149 1.5496989816402 1.409202927816 1.861190312773 0.66893609183212 1.9505813468221 1.5048973771805 1.5118733242964 1.9520509554945 1.6936353837855 1.6622078600175 1.4858527066156 1.0927329182024 -0.4000782687438 1.3765363269282 1.0846029930276 1.1875633107355 1.8991382000943 1.8736156206426 1.8895126234129 1.8179630483366 1.5953525107225 0.87299054446202 0.86627620165576 1.3901238703415 1.7474265109496 0.57076407146275 1.9041282485285 0.75371811238586 1.7041960559434 1.6052450046539 0.89477904070844 1.9170280895996 1.2126972646358 0.92252250108812 0.88400128314307 -0.10893681344239 1.874072336102 1.5175558019205 1.1847543563075 0.56641966761805 1.7631254788903 1.7594584126267 1.552937164219 1.7729602363129 0.69503874707189 1.5888281677808 0.9840919036782 1.5914280705523 1.8511518545189 1.3561231730844 1.540801548214 0.59498041113544 1.619751476002 0.70398599197266 1.6415942750449 0.47693801389487 0.23044886177055 0.064913920560016 0.45694977776883 0.88963627494133 1.874422819711 1.3236221546523 1.8770775830714 1.1157287668594 1.1091461759156 1.5796888448841 1.3607607993299 1.9159837829376 1.8354366055312 1.4669322326427 1.8467060420763 1.5646292192017 0.78578093368394 1.8533217549783 1.9021801295523 1.546015982834 1.4338692583105 1.8591519510379 1.5362434773825 1.8696068624639 1.5918883414188 1.6177009529174 1.7325099689972 1.6689345844321 1.9685355775503 1.4528533114249 0.54762214521539 0.51185679284744 1.2940362551172 0.98779376165917 1.5812539759281 1.7271323059573 1.3112358948536 1.5337738523485 1.8496077501714 1.6966993282699 0.64252451870778 1.4865484325037 1.7059463679691 0.74234505444958 0.39802377543577 0.86159153787585 0.50185425063706 0.46540342503742 1.5936343310642 1.3952883522764 1.081384316925 0.82901201097728 1.1438738562386 1.6571303177917 1.3156423723295 1.5454147075408 1.1219963107925 0.750052037218 1.5982796380001 1.3017754670517 1.2515559877824 0.66791798846467 1.2169425392386 1.5332198464007 1.1043795946709 1.457539113194 1.2085643982722 1.8333747990476 1.6074178942371 1.5475254677072 1.4357744959406 1.9257560924774 1.2800227147923 1.7063356610516 1.5800622512218 0.48141379078809 -0.61423455400795 1.6457386197335 1.2346254191374 0.78139206309399 1.5583068484044 1.5445233086354 1.823068413504 1.9100634684428 1.0057956787171 -0.54815758274909 0.87436920814688 1.4132505435576 1.2291410774921 -0.23211308638863 1.0910899607539 1.0630269676811 1.4250916607024 0.94846305599205 1.601511456139 1.4309806115709 1.2604182780943 1.5467945177644 1.7423189203027 1.7533760407823 0.63309695964407 1.8920383757918 1.024256542284 0.17721733687286 1.3248797750511 1.6701756929832 0.52890331484287 1.3063469877207 1.3831683657753 0.76116897996611 1.3924778899337 1.7401713130488 1.487220750995 0.90257508166267 1.7511722203863 1.6873222318546 1.2885162676047 1.3219184408856 0.9909795871196 1.5122112213161 0.31261330036379 0.62195446846202 1.1582239122856 1.2997717927537 1.5333763940022 0.77147610874204 0.50572831398596 1.81481321189 1.8804273447516 1.9078124674242 1.6146728703889 1.3745065375776 1.8820752577094 1.8442331930439 0.59380089412661 0.85102953104059 1.5135645920471 1.0105718581724 -0.20972074445012 1.6130339129402 1.4320051997901 1.3920344662257 1.590390089432 1.6345152734713 1.4844199424387 1.479555585147 1.5498319823312 1.1020356144246 0.82857804452937 1.0202476198169 1.6928919027764 1.9838988872844 1.2527482768088 1.3693133065847 1.7184833336268 1.8434921516294 1.2821992030845 1.5708705184551 1.5244811436541 0.74026995948993 1.8490795502575 1.4730264372875 1.4464559804004 0.98646798872882 1.5724738085186 1.8454392952345 -0.33561228670499 1.5986839103714 1.519998495387 0.55731533589455 1.4229127829973 1.3794708259685 1.0539989108763 0.21670062663356 0.18631490591921 1.609592004471 0.31821003431816 1.7085196131405 1.3702242960011 1.7763536959922 0.9144337504102 1.7491200462085 1.4658136036634 1.7499368512021 1.8033644953987 1.408102562114 1.2034942895753 1.4336703763901 1.5765398445843 1.2909619568126 1.7714755008322 1.847147239429 1.5652094491657 1.1519952712714 1.2865026047563 1.1953812746496 1.2415780961514 0.97615405564387 0.69822408213815 1.4631171123761 1.5373600575699 1.8626604195537 1.4927463327992 1.8981591352962 1.4677130126126 1.6978670663244 1.4945217818012 1.9084412625688 1.3279414853833 1.0098119107843 1.5963596992921 1.9729930165167 1.5721119240831 0.88354554393105 1.3525891147038 -0.21526251317104 1.8550710293977 0.505913241795 1.8302127153463 1.4908279893579 0.27181859104488 1.5959711674607 1.3179932466873 1.0602872209819 1.4876522125731 1.7052358653239 1.8733811082588 1.4123099621606 1.517226597829 1.8165006566626 1.6410361542649 1.3859313879197 0.72128213223616 1.6220665316512 1.5914903778502 1.5391979281456 0.67092799030839 0.57913852007031 1.3991886780915 1.2512019117358 1.5174497012929 0.84735102105353 1.8542356437937 1.6566540022079 0.81539359213281 1.9669044631373 1.4164352957338 1.0704282021875 0.63502077025839 0.84719370265243 1.0006233098851 0.56820854545982 1.7193258585153 1.6232740684428 0.028767496722454 1.3686168865688 1.1635649156384 1.461292168493 1.3517951467441 1.569776388089 1.5488451096308 1.8386182909085 1.0550085800855 1.6152186533467 0.78527936939106 1.0811508917436 1.3919897416264 1.6265273384073 1.1026121759767 1.793861745577 1.6324953876541 1.3320757403772 1.6130503710723 1.4417009460951 1.6725981647602 1.5771094488112 1.6341644938488 1.6054933604498 0.42361827201261 1.3258264406004 1.4434318696453 1.8441319917635 0.76534576193726 1.8145962135607 0.9613779497102 0.91097095373785 1.3565703564393 1.8187057227609 0.8960208430537 -0.65170499361342 1.7328378046584 1.5686627461941 1.2689227933843 1.699825781393 1.4950522891742 0.6699146453356 0.83591302969374 1.875662230627 0.94924220721281 1.5960525636347 0.84651046064772 0.70360632328705 1.3886973957914 0.57343774566431 1.5779667835908 1.6277641714202 1.5379097223192 0.1297843471353 1.1331606802747 1.7128605375136 1.224325687514 1.5541445838135 1.4381177154295 1.4172893837429 1.4488282771517 1.0897494381019 1.6036817847593 1.5836579516333 1.0318067006782 1.0833207674106 0.29045592249925 1.9622404007729 0.96043614006722 0.33804723065861 1.7463843857882 1.3383897315219 1.6371589930969 1.7097560744851 1.6840761371464 0.65693896189334 0.85270742913915 1.6969094473657 1.3988432695726 1.6445238848829 1.1427148229826 1.5125336070089 0.8623839647088 1.0572681784266 0.91716357181006 1.5204941904701 1.2259571689899 0.69513491217449 1.8974486563371 1.6744923124219 -0.54583804686766 0.14042555080511 0.9057308328839 1.7065113833919 1.8991809543485 1.5661235978527 1.8542561762743 1.1946949474743 1.4662335842347 0.63265001085193 1.6905192813851 0.40722331938465 1.9954463106702 1.1259001215217 1.6134813775457 0.9041848664981 1.6217335151738 1.4947122988499 1.3553998805325 1.4405597771612 0.42343063800268 1.846114280376 1.1415304849286 1.5055233545852 0.48209105550434 1.4860940865507 1.5933040939251 0.96693514501591 1.3749311208739 0.90170378813959 1.6931721687932 1.1276133017421 1.4777227843198 1.3860075391737 1.2707787211118 1.8750458494622 0.75016700648904 0.44278664005154 -0.51484226748189 1.7909125567563 1.1501096838914 1.0581216905551 0.76189099151334 1.8385986079961 -0.18749203045621 1.6398431038073 1.6011584503107 1.1142668145465 1.0314624365553 1.7897102812195 1.8958796048126 1.4891849096513 1.5521464504966 1.7941624483905 1.6399255076355 1.863984973623 0.73000720549086 1.6273199305612 1.8567774719772 2.056952646079 0.74545754666414 1.4706971044284 1.412569900117 1.4737502886089 1.620299842918 1.6290175036007 0.64909141697185 1.7315185805414 0.74573201832116 1.1443599512089 1.4804392442857 1.937571345799 1.189991250299 1.4170635807726 0.14417042845992 1.678101621025 1.6652097956689 1.1910005314737 0.2860164185158 1.4032544778864 0.73364008006824 1.6527031814076 1.2300089893576 1.501885381994 -0.32364881320296 1.5869656019251 0.65966867631274 0.78259242236204 1.8612197623277 1.278423858514 1.3731989496729 1.5337526773482 0.49054104683299 1.8801725669165 1.8103884592279 1.5278406179597 1.8395051239274 0.67315812306178 1.7015542673023 1.6475911670135 1.5355178973096 1.0555567180493 1.8050076126308 0.51622367096773 1.2780495655735 1.3962188159593 1.1998890593512 0.81128435603464 1.7808227814323 1.5629396758485 1.4097245611986 1.3888208893632 0.72704550133514 1.4052162414786 -0.41511870937494 1.6061364851759 1.0162465934432 -0.24342489004167 0.2708856733719 1.5395926811803 1.8301960429332 1.3698661509941 1.3871175856553 1.907207711871 1.5440352564964 1.0913598273994 1.6353591004157 0.93523434188682 1.211837858645 1.4932890950972 0.97831346466423 0.36108814361402 1.7098874677631 1.4536839907712 1.8665389787188 0.78047398294987 1.68866924532 1.5524950508403 1.4872573054535 1.5769349478827 1.5833407389144 0.2323215405063 1.1210009913602 1.4560859181043 1.0500976429929 1.2471007274962 1.143347801036 1.6965680831691 1.0839137416562 1.2604462424158 1.473615199499 1.826427158851 1.7583293782769 1.7499156288182 0.65421674719674 1.8739420216785 1.4833372334128 0.77576566746554 1.1978606725121 1.5081782922681 1.6871697677446 1.1264260577971 0.83874009348289 1.4544746872755 1.6119622576279 1.9355983723561 1.4376621716088 1.3131718520078 0.82492902383921 1.417284127809 1.5946616224871 1.5984885106836 1.7846590059758 1.451490144094 1.6077143477409 1.1683413952392 1.5530200245366 1.6082845490689 0.8248676590765 1.9152360629462 1.3980920105101 0.59608111888787 1.6052969796087 0.91798696125112 1.5454768108623 1.2474756999852 1.7372542597893 1.2029430063908 1.2252620635453 1.5677966003676 1.1595217310977 1.673547108445 1.8653906564207 1.3400362853593 1.6578704199842 1.4576179188873 0.48949469467213 1.1495079046978 1.795738317325 1.744741920801 0.26634587772021 1.6024801090199 -0.5416259428004 1.4133011033546 1.7347536078188 1.3097701486948 0.66436339616 1.7784649705672 -0.66505940811079 1.7749470321589 1.3334524616026 1.4352830485316 0.75298016578193 1.1876894606379 1.3944381161733 1.0754993026803 1.4969006382124 1.0827583151395 1.8016643126657 0.78100195347443 1.4310522113964 1.5125872744623 1.2575405110161 1.3652175546849 1.595687052876 1.5968616664681 1.4663102510186 1.1173919814399 0.62006551073966 0.75387585882369 0.66204852301711 1.5356910319512 1.5833386706848 1.596656890573 1.0789036605511 1.6763897627981 1.6144499667861 1.1697285607425 1.5981028539637 1.4306507654145 1.6140734665866 0.52932325535352 0.97227939529984 1.61441291511 1.2770930219288 0.98150412699912 1.3501176658326 1.3666933424585 1.0634522706587 1.28049862837 1.5545962505672 1.5349430284006 1.2140118759371 1.8633148017796 1.8279030359982 1.0943204464096 1.5799089433054 0.73204539377944 1.3304442577221 0.66001788166804 1.6506070659488 -0.19248950295435 0.7484391949863 1.5460313914158 -0.24699423972217 1.7041600489326 0.73150811630385 1.294358133852 1.3353416279836 1.4399698366155 0.82067714062217 1.4150496774393 0.50468198932636 1.259282037249 1.5809630695715 1.2766118279314 1.577475528052 1.569280684444 1.017524609661 0.84530059914488 0.533603612076 0.78796318075765 0.63120391194013 1.883840376407 0.45868067948313 0.93155238018718 1.535081702045 1.290433752006 1.6329331836122 1.8329337094052 1.6492507444909 1.6308094451466 1.2483389775478 1.4025179116146 1.5293783178076 1.5483898732541 1.7076570997616 0.56643029552913 1.5889444512164 1.6097893782134 1.1789133022212 1.178168205511 1.6715797673908 1.9482367348109 1.597910628131 1.7284594861715 0.66111055279044 1.2407049554898 1.8164218054008 1.6461698306085 1.3094960473979 1.7406412629994 1.0409213878698 1.3819637180976 0.45405749488313 1.7176207952393 1.3273257454108 0.70361022322641 1.4483467354371 1.5364644499636 1.4354874163128 -0.14530637998154 1.2868189276122 1.5885483712767 1.8985952382444 0.34561443169118 1.7761804806076 0.86449579978506 0.22732627497329 1.2358810036611 -0.44931545366686 1.7255284981057 1.9508809645591 1.4485036841812 1.0197121307091 1.515809770129 1.8012446633564 0.43496271154428 1.5942059777259 1.5068376395362 0.22777753953037 1.4898595896866 1.3582229438771 1.6498848787283 0.96047227117944 0.53767842766948 1.4413699137524 0.64965509046005 1.2686108669563 1.8831029911476 1.3639314240612 1.5009786087636 1.3595852663544 1.6366359281807 0.36633860802134 0.41699270616965 0.9861394328705 2.0370834485525 1.1421073353765 0.62822950488358 1.5273716680942 1.585125063461 1.0697519182516 1.3513174490587 1.2496992938248 1.3785429084149 1.60572263396 1.480333047798 0.754793916981 1.2895630107772 1.3486613424299 1.6353315092707 1.9041872313281 0.61651797075693 0.99884143550196 0.50916939058776 1.5251518811635 1.3209799711795 0.84992177640821 0.99797390498298 1.7097721935083 0.52592636757156 1.2017123069574 1.0721899791304 1.2929909102181 1.7536878907242 1.2415336126719 1.1484152228097 1.8055943334888 1.8949535897825 1.5554267983341 1.7472118114318 1.6331901876106 1.255472427992 0.7904766116899 0.76902555296307 1.4780201923195 1.0860229545532 1.1918175804373 1.4986987309518 0.780792840683 1.6748003423999 -0.12699618107641 1.8054220433806 1.6146461718641 1.3624511557486 0.5658213354519 0.68753010421189 1.7771844211677 -0.015340462380367 1.1608593356474 1.3973014306881 0.61279713207422 1.1563639724728 1.9105729386328 1.7913368226151 1.5296718465916 0.67982754234957 1.7413817237153 1.6977904712014 0.36772116089086 0.93163566726141 1.6496491433158 1.021684241013 1.5550558048559 1.5498359310392 0.9503919721688 1.378145014522 1.2476100297291 0.77649602383374 0.64949430463809 0.64820638596929 1.7606086233239 1.8587409982627 2.4807838376505 1.5854306756563 0.9176342039855 1.6398580159964 1.4774313993925 0.97025157875873 1.5128638471017 1.7177129392727 0.5238473081446 1.7115211187717 0.89524222627193 1.7489668124536 1.6042476111473 0.76070118091589 1.1679664547592 1.5191045182508 1.4167909163506 1.2469831393668 0.90705963955289 1.6652037228705 1.821902663812 0.86020126912895 1.7151773389548 1.7565733679658 0.51888118459218 1.984199514268 1.4195712505468 1.1921953446539 1.168044187178 1.1225041983876 1.5945323384855 1.4800143456074 1.713191464803 0.94316920416802 1.7810469296412 1.3830961330484 1.4592547224938 1.3405508960086 1.045302009721 0.66890068528942 1.9070511326141 1.8789482702995 1.431687527134 1.9270541152268 1.0763358845799 1.038670300631 1.5349304344969 1.505683972951 1.3528447816913 1.3657474366358 1.5112336088722 1.0502057195251 1.8387066846968 1.8660227282494 1.4118294798363 1.0786103406505 0.80674913494115 1.4152056341882 1.2656007706635 0.3148514817745 1.568678831576 1.7273673995785 1.2918917176311 1.8427332333574 1.3476046212403 1.099500424011 1.9010800625848 1.5470180939208 0.75760995315331 0.73885937228603 1.2960905280054 1.8068255111895 1.187160558789 1.0907827871415 1.5951480450029 1.3193178683376 1.7337177263844 1.6200375474095 1.2304007048773 1.4043156859349 1.7996360988239 0.91046095389902 1.5880808077327 1.6536238957094 1.8890681184331 1.5046939628124 1.2624177325196 1.7820319202975 1.7693434376138 1.8126888883475 1.5249143760247 1.4666638156241 1.5113429210432 1.6097854572179 1.48558457946 0.94419933095402 0.067103178853099 0.89058077717677 0.79922805453083 0.78211581088132 1.5730768218834 1.3010658416705 1.7627952406048 1.254111715034 1.5347192875619 1.2814564118871 0.60220627526912 1.7655420665758 1.5603401852352 1.6500534924917 -0.34560454950033 1.8623489431277 1.6212986148811 1.0442897588119 1.8655440645801 1.1966979009969 1.1997410581551 1.9318891963408 1.31249840365 0.62365522883235 1.4604196878557 1.2108706778283 1.1063444821466 1.7955092156501 0.95754940502956 1.6600114530152 1.3308210302749 1.3438004678117 1.0427063379196 1.7828471978579 0.26142572528413 0.69890108845826 -0.49998353692918 1.3937756140809 1.4612340876182 0.80222416688022 1.0538418794059 1.5897789824362 1.7811292170292 1.4201192674557 1.6287633447188 0.8950984292494 0.92084793428466 1.8567685856199 1.7404434197864 1.5029419306982 1.6093624940418 1.4900933741405 1.4253470995358 0.60537282777838 1.3890746832081 1.6783084894214 -0.13495750305388 1.3828902018782 1.8903919847684 1.4466212973071 1.4245628582464 1.2522730691865 0.89221218573279 0.45393590826657 1.5447274727683 0.81722554588344 1.3741673036915 1.4121659243704 1.5612847047554 1.6331885389076 1.7787101680282 1.8041653524439 0.34454489153307 1.4748235216423 1.1167711171833 0.43062112254504 1.8224063216126 -0.4574170516398 0.5963036656461 1.3131797003284 1.6781198790511 1.00320420658 1.4992659749231 0.58245878922763 1.4372663374415 1.0395786968826 1.3005922414917 0.97807206975972 1.0375900407935 1.9051863675541 1.4951813402426 0.73635582331084 -0.043910882806947 1.0982454304497 1.3370940027321 1.5703938985215 1.4763724148682 0.97331278813469 1.852826580667 1.3464126215338 1.519091911545 1.4601280121116 0.78351655189373 1.574454866068 1.5388002311353 1.966213948873 1.4541166576984 1.40