# vtk DataFile Version 3.0
d-2__ created by libgimli-v1.5.0-1-g5991b6ac
ASCII
DATASET UNSTRUCTURED_GRID
POINTS 803 double
8.3333333333333	0	0
8.5	-0.29429712828708	0
8.6666666666667	0	0
21.166666666667	-0.35154628884587	0
21.333333333333	0	0
21	0	0
-0.13949540192174	-0.65832226163824	0
0.26765699968102	-1.1941152153012	0
0.50098922076846	-0.451860121227	0
11.833333333333	-0.28867513459481	0
11.666666666667	-0.84084908820295	0
12	-0.57735026571174	0
-1	0	0
-0.82347194173878	-1.6006755924119	0
21.666666666667	0	0
21.5	-0.55217395360815	0
1.1666666666667	-0.35154628884586	0
1.3333333333333	0	0
1	0	0
1.5	-0.55217395360814	0
23.61842901153	-0.60378553647188	0
24.166666666667	-0.55217395360814	0
23.833333333333	-0.35154628884586	0
1.6666666666667	0	0
8.1666666666667	-0.35154628884586	0
1.8333333333333	-0.35154628884586	0
2	0	0
4.8333333333333	-0.35154628884586	0
5.1666666666667	-0.55217395360814	0
5	0	0
2.6666666666667	0	0
2.3333333333333	0	0
2.5	-0.35154628884586	0
2.1666666666667	-0.29429712828708	0
8.4079889429861	-0.75760412093209	0
9.0144333430414	-1.1439190584088	0
8.8333333333333	-0.55217395360814	0
13	0	0
13.166666666667	-0.29429712828707	0
13.333333333333	0	0
3.1666666666667	-0.35154628884586	0
3.5	-0.55217395360814	0
3.3333333333333	0	0
16	0	0
16.166666666667	-0.29429712828708	0
16.333333333333	0	0
3.6666666666667	0	0
3.8333333333333	-0.29429712828707	0
4	0	0
4.3333333333333	0	0
4.1666666666667	-0.35154628884586	0
27	0	0
26.833333333333	-0.35154628884586	0
27.166666666667	-0.55217395360814	0
3	0	0
16.5	-0.35154628884586	0
16.666666666667	0	0
2.8333333333333	-0.55217395360814	0
13.5	-0.35154628884586	0
13.666666666667	0	0
4.5	-0.55217395360814	0
4.6666666666667	0	0
3.9253443903472	-0.75760412093208	0
29.833333333333	-0.29429712828707	0
30.166666666667	-0.35154628884587	0
30	0	0
35.905165514021	-0.87509566217462	0
36.166666666667	-0.35154628884586	0
35.661339523067	-0.61041034021497	0
5.5	-0.29429712828708	0
5.8333333333333	-0.35154628884586	0
5.6666666666667	0	0
5.3333333333333	0	0
27.333333333333	0	0
27.5	-0.35154628884586	0
35.833333333333	-0.29429712828708	0
6.1666666666667	-0.55217395360814	0
6.3333333333333	0	0
6	0	0
37	0	0
37.166666666667	-0.35154628884586	0
37.333333333333	0	0
10.741322276319	-0.75760412093209	0
11.175685896383	-1.113902458684	0
11.166666666667	-0.55217395360814	0
6.5	-0.35154628884586	0
30.795730030397	-1.0103532830333	0
31.229185900173	-0.87228466782526	0
31.000045632922	-0.57199295442671	0
31.666666666667	0	0
31.833333333333	-0.55217395360814	0
32	0	0
40	0	0
40.166666666667	-0.35154628884586	0
40.333333333333	0	0
6.8333333333333	-0.29429712828708	0
7.1666666666667	-0.28872883340808	0
7	0	0
7.2211097499487	-1.0538354750778	0
7.0053271435993	-0.61041034021496	0
6.7615011526461	-0.87509566217461	0
9.5	-0.29429712828707	0
9.3333333333333	0	0
9.1666666666667	-0.28872883340808	0
7.3333333333333	0	0
39.666666666667	0	0
39.833333333333	-0.29429712828708	0
13.674580112811	-1.7184248716052	0
14.353791495618	-2.0265268011931	0
13.958469529133	-1.3940906823913	0
7.6666666666667	0	0
7.8333333333333	-0.55217395360814	0
8	0	0
12.994672856401	-0.61041034021496	0
5.5920110570139	-0.75760412093209	0
5.8348685364776	-1.5356869134354	0
9.8333333333333	-0.35154628884586	0
9.5718321806872	-0.87509566217461	0
10.166666666667	-0.55217395360814	0
7.33337923226	-0.57364431858631	0
10.36828810089	-1.6552861219901	0
6.6666666666667	0	0
36.666666666667	0	0
36.833333333333	-0.29429712828708	0
37.5	-0.55217395360814	0
24.333333333333	0	0
24	0	0
12.503171480364	-0.86507900392268	0
12.328351644367	-1.416191408927	0
12.778890250051	-1.0538354750778	0
11.5	-0.28867513459481	0
19.666666666667	0	0
19.833333333333	-0.35154628884586	0
20	0	0
9.6666666666667	0	0
20.5	-0.28872883340808	0
20.666666666667	0	0
20.333333333333	0	0
20.905165514021	-0.87509566217461	0
10.5	-0.35154628884586	0
10.333333333333	0	0
9.3280061897341	-0.61041034021496	0
10.833333333333	-0.29429712828707	0
10.666666666667	0	0
22.833333333333	-0.55217395360814	0
22.5	-0.72876886968591	0
22.915493514149	-1.1101467813362	0
5.2020787936337	-1.0219070688786	0
18.833333333333	-0.29429712828707	0
18.925344390347	-0.75760412093207	0
19.166666666667	-0.35154628884587	0
22.666666666667	0	0
22.5	-0.35154628884586	0
13.833333333333	-0.55217395360814	0
14	0	0
16.833333333333	-0.55217395360814	0
0	0	0
14.166666666667	-0.35154628884586	0
14.333333333333	0	0
14.5	-0.55217395360814	0
14.833333333333	-0.35154628884586	0
14.666666666667	0	0
15	0	0
15.166666666667	-0.55217395360814	0
15.333333333333	0	0
2.0948344859795	-0.87509566217461	0
2.2850956781966	-0.60378553647187	0
12	0	0
11.666666666667	0	0
22.166666666667	-0.95506458788032	0
22.166666666667	-0.55217395360814	0
21.833333333333	-0.7287688696859	0
15.5	-0.35154628884586	0
15.666666666667	0	0
17	0	0
20.833333333333	-0.29429712828707	0
20.661339523067	-0.61041034021495	0
9	0	0
14.166666666667	-0.72876886968591	0
17.333333333333	0	0
17.166666666667	-0.35154628884586	0
18	0	0
17.666666666667	0	0
17.833333333333	-0.55217395360814	0
17.5	-0.29429712828708	0
16.258677723681	-0.75760412093209	0
12.833333333333	-0.28872883340808	0
18.166666666667	-0.35154628884586	0
18.333333333333	0	0
17.407988942986	-0.7576041209321	0
19	0	0
19.333333333333	0	0
18.666666666667	0	0
12.166666666667	-0.28867513459481	0
12.333333333333	0	0
15.833333333333	-0.55217395360814	0
20.166666666667	-0.55217395360814	0
19.5	-0.55217395360815	0
7.5	-0.28867513958836	0
23.5	-0.29429712828708	0
21.833333333333	-0.35154628884586	0
22	0	0
26.592011057014	-0.7576041209321	0
22.333333333333	0	0
23.934922518609	-1.0280995368212	0
25.166666666667	-0.35154628884587	0
25.5	-0.55217395360815	0
25.333333333333	0	0
23.166666666667	-0.35154628884586	0
23	0	0
26.666666666667	0	0
26.5	-0.29429712828708	0
23.666666666667	0	0
23.333333333333	0	0
26.166666666667	-0.55217395360814	0
26.333333333333	0	0
26	0	0
24.761501152646	-0.87509566217461	0
24.951762344863	-0.60378553647187	0
24.5	-0.35154628884586	0
33.5	-0.35154628884586	0
33.238498847354	-0.8750956621746	0
33.833333333333	-0.55217395360815	0
24.666666666667	0	0
28.166666666667	-0.35154628884587	0
28.5	-0.55217395360815	0
28.333333333333	0	0
25	0	0
24.833333333333	-0.29429712828707	0
27.761501152646	-0.87509566217461	0
27.951762344863	-0.60378553647187	0
29.333333333333	0	0
29	0	0
29.166666666667	-0.55217395360814	0
25.833333333333	-0.35154628884586	0
29.947484315848	-0.62869436758688	0
30.409983486194	-0.76921735210505	0
34.166666666667	-0.72876886968591	0
34.166666666667	-0.35154628884586	0
25.666666666667	0	0
35.445556916718	-1.0538354750779	0
35.333287434407	-0.57364431858632	0
29.666666666667	0	0
29.5	-0.28872883340808	0
26.834868536478	-1.5356869134355	0
30.833333333333	-0.28872883340808	0
30.671365010853	-0.57276869068256	0
27.666666666667	0	0
38.204670056311	-1.4270134762662	0
38.601589185276	-1.0280995368212	0
38.094834485979	-0.87509566217463	0
28	0	0
27.833333333333	-0.29429712828707	0
36.662074300781	-0.56642454030296	0
28.666666666667	0	0
31.746636025369	-1.1187108767801	0
28.833333333333	-0.35154628884586	0
33	0	0
33.166666666667	-0.29429712828707	0
33.333333333333	0	0
34.5	-0.55217395360814	0
34.731644951192	-0.92970615345739	0
35.666666666667	0	0
35.5	-0.28872883340809	0
30.333333333333	0	0
31	0	0
31.166666666667	-0.28867513958836	0
31.333333333333	0	0
38.285095678197	-0.60378553647188	0
37.833333333333	-0.35154628884586	0
30.666666666667	0	0
30.5	-0.29429712828708	0
36.5	-0.28872883340808	0
33.666666666667	0	0
36.41952417611	-0.77749898599357	0
38.5	-0.35154628884586	0
38.833333333333	-0.55217395360815	0
38.666666666667	0	0
29.657657699283	-0.83081436360664	0
40.168201869811	-1.5356869134355	0
40.5	-0.55217395360814	0
39.925344390347	-0.75760412093211	0
32.994672856401	-0.61041034021495	0
31.5	-0.35154628884586	0
43	0	0
42.666666666667	0	0
42.833333333333	-0.29429712828707	0
43.404176293252	-0.42323554094762	0
35.88498281448	-1.5034830799843	0
41.166666666667	-0.29429712828708	0
41.074655609653	-0.75760412093211	0
41.5	-0.55217395360814	0
41	0	0
41.333333333333	0	0
34.333333333333	0	0
32.166666666667	-0.35154628884586	0
32.333333333333	0	0
39.5	-0.55217395360814	0
39.333333333333	0	0
36.500673817427	-1.6307728168531	0
40.833333333333	-0.35154628884586	0
34.666666666667	0	0
35.333333333333	0	0
35.166666666667	-0.28867513958836	0
35	0	0
36.333333333333	0	0
36	0	0
12.333333329009	-0.57732068917697	0
37.666666666667	0	0
7.9035368819631	-1.2622568520387	0
28.737635378193	-1.2311528923644	0
29.212976838479	-1.0424777721347	0
28.833333333333	-0.7287688696859	0
12.66662076774	-0.57364431858631	0
38.166666666667	-0.29429712828707	0
38.333333333333	0	0
12.5	-0.28867513958836	0
39	0	0
39.166666666667	-0.35154628884586	0
20.347766676375	-1.1439190584087	0
19.833333333333	-0.7287688696859	0
40.666666666667	0	0
42.5	-0.35154628884586	0
10	0	0
18.5	-0.55217395360815	0
41.666666666667	0	0
23.428167819313	-0.87509566217462	0
42	0	0
42.166666666667	-0.29429712828707	0
42.333333333333	0	0
42.744785246826	-0.77776727251482	0
41.833333333333	-0.35154628884586	0
38	0	0
41.542494325991	-1.1832128457714	0
2.6015891852757	-1.0280995368212	0
13.258353909981	-1.6064355191183	0
4.8333333333333	-0.72876886968591	0
15.5	-0.7287688696859	0
15.8687454603	-1.0219070688786	0
16.501535203144	-1.5356869134354	0
14.833333333333	-0.72876886968591	0
12.666666666667	0	0
17.797921206366	-1.0219070688786	0
18.166666666667	-0.7287688696859	0
36.905165514021	-0.87509566217463	0
32.666666666667	0	0
32.5	-0.55217395360814	0
34.833333333333	-0.28867513459481	0
34.999999995676	-0.57732068917696	0
34	0	0
35.169838147031	-0.8650790039227	0
42.285095678197	-0.60378553647188	0
41.877780449001	-0.80261564071807	0
13.238498847354	-0.87509566217461	0
11.333333333333	0	0
11.697267761921	-1.4738194081615	0
12.166692603518	-0.86967323340335	0
3.1666666666667	-0.72876886968591	0
11	0	0
18.535412126967	-1.0219070688787	0
25.833333333333	-0.7287688696859	0
25.268255851942	-1.0280995368211	0
28.268255851942	-1.0280995368211	0
[...]
CELL_DATA 1424
SCALARS Coverage double 1
LOOKUP_TABLE default
2.8570087275876 3.1135394864169 2.0211269592491 2.5769090049007 1.7950076968856 2.9726724116891 2.8455740853829 2.3168235276186 2.7229836713844 2.607507313117 2.8057023814468 2.4124435061729 2.8569239528046 2.6485664841683 2.6886960999623 2.6110761354578 2.4650160943097 3.2455190945073 2.6158220496928 3.2382556125592 3.2949819382791 3.2647920505868 2.9243075987646 2.9776239491704 2.94377789453 2.9588954104762 2.9443494336198 2.8695320580453 2.5292992537156 2.9198932265145 2.9946966606945 2.6409842836992 2.7587786181685 2.9742803883303 2.8688206382945 2.7283556872458 2.9813993941206 3.327270232631 2.4784483639176 2.7170861032026 2.6391046578178 3.0313983251926 3.146955859692 3.2821966854726 2.8244663241992 2.4545693843172 2.8531443926036 3.290040533981 3.2966036590344 2.1274736406903 2.9807988433077 3.0601350939431 2.6872339876794 2.3638354022772 2.7942519717263 2.6225043753831 2.5005740612961 2.4234363456769 2.8663861333773 2.9468396225833 3.3431339187437 2.8581742683495 3.1230271323148 2.3512339593122 2.5925556746185 3.0820036916645 2.9890471301104 2.8944629356561 2.6380530105365 2.7767215361909 2.9157158600936 2.7020305644174 2.8136370085732 2.5727649166682 2.404379890021 2.7131615667636 2.8088164755657 2.7186705794071 2.4567506752956 3.0109422594527 2.735571308878 2.5864020999626 2.7351075148778 3.0704065406532 2.5965901378487 2.7545289720982 3.0064802870555 2.8700613277231 2.8267681054248 2.3266311825218 2.7568732564906 2.4227724208634 3.0659325307669 2.6169417515337 2.5037596373393 2.9362236764967 2.3528597264787 3.0226662891291 2.7149801585487 3.0361806721774 2.6139224116995 3.0725244815205 2.6458736695233 3.0031228916324 2.8111137735526 2.6807014434537 2.7888653939195 2.7516357419282 2.8251964337312 3.0253113162736 2.6090749525981 3.2457138289362 3.2829433856614 3.0622686472875 2.6082309235388 2.8509337363945 3.1674996874479 2.7655252021835 3.1511281620376 2.8664234304152 2.7304897157544 2.8558255643197 2.9278672141662 2.7744909372358 2.6936026127517 3.0660579891491 2.7086670926917 2.8109079630692 2.9089204041707 2.7927420517045 3.3304054354081 2.7191121321379 3.0352696858194 3.2767878638941 2.6181284130414 2.9124943824684 2.8616742259999 2.9397425484649 3.1942390090204 2.8925072591993 3.1679867769964 3.0995123315365 2.709101439152 2.70839038745 3.0796497085403 2.9352233199399 3.4113963875888 2.9797055239846 2.73062694773 3.1982113202389 2.8317399780238 2.725865752509 2.9920527096085 3.21979714462 2.7813715575329 3.186072378921 2.5725292506274 3.0475722136192 2.961110352918 2.821849717218 2.558557321973 2.8039081329266 3.1012167113005 2.3199305120523 3.4130817602318 2.9870692487913 2.7454315426417 3.0706128699199 2.5986483679518 2.8485070441078 3.2227914471298 3.1679658966875 2.9030379957573 3.2136794819156 2.6476383174331 2.9047401593578 2.645050670688 3.1880416683801 3.2193460191844 3.4161029505884 2.5929749693886 3.0967820145498 2.9660273864279 3.0995048684128 2.9750178063411 2.8795711103549 2.7053768609264 2.7559827507115 2.7127613204453 2.4114858634357 2.7674425121269 2.7307623968305 2.8635587378688 2.9351503664033 3.0886954182613 2.3125949993988 2.4300159098014 2.778847689986 2.4761190032313 3.0000969892729 2.9281641267424 2.8421969162013 3.1890303134568 2.9147020796494 2.309794770313 2.5084267213802 2.6302386207622 3.0565795259262 2.7166346573871 2.95473106889 3.2102417071307 2.9600478575389 2.6500819173768 3.1338806389634 2.6386709949046 2.9635515643015 2.7769378865656 2.6775963575138 2.7533036576205 2.4387273654986 2.8605687959415 2.5643257408768 2.5331793174313 2.6467995125197 2.4897831888519 2.8253918671862 2.828941558303 3.0898310406861 2.8780226979166 2.7342003034595 3.0572099375222 3.116231239363 2.5189647631716 2.8726755938073 2.5224513977654 2.8693248744105 2.6976040330527 3.2446247481818 2.9120667465404 2.9685609897158 2.8386417199597 2.6910322487828 2.7199392838291 2.864893564502 2.6566020357597 2.9883399610527 2.8525377133503 2.1522596179646 2.7082583089392 2.7517065034658 2.9516546208935 2.595885677801 2.7002912239012 2.6239284721504 2.7615910398289 3.0925002806187 2.6402762197546 2.902942677171 2.3050200097457 2.4719801832084 3.1558916559886 2.3181611215364 2.640559212363 2.7919076875128 2.5805818813176 2.808603084644 2.5301154890396 2.6079860227661 2.7066051762444 2.2588661934586 2.5480312772 2.6473830113226 2.5404194030978 2.5344191660345 2.4515073422433 2.6205209249811 2.7450765152878 2.787308395384 2.6064593202471 2.6110272426934 2.7816013277239 3.2443547605376 2.8860312752526 2.500558466708 2.6425840791193 2.6171836835281 2.7331149246482 2.6749552727111 2.757357793284 2.83414404284 2.6652873949939 2.7775447943388 2.7920968309886 3.4286775730179 2.8527450383155 2.8912711567947 2.727781037171 2.7974773125169 2.8184233192205 3.4275110001379 2.8647835684506 3.0042504898444 2.728196926631 2.5688730133632 2.9525505237706 2.7606047710257 2.814709764428 3.4152768324646 2.9399646335144 2.9384094661193 2.9267781442836 3.3710859388939 2.6701972023499 2.7895030753872 2.5903751962681 2.3944137443904 2.896297711745 2.5982180775077 2.6882757042434 3.1062561979416 2.6990821552404 3.032869100801 2.8039631289968 3.0127104655061 2.3042140636995 2.4053196083946 2.5757761756467 2.5554817618856 2.64944253045 2.7688240883001 2.5872150475161 2.4896254957843 2.5983416963833 2.8155901328499 2.7691270618872 2.90493857834 2.3644178130579 2.2567406920067 2.8592542764502 3.2903551910278 2.9728293744894 2.7926003012141 2.6363733446867 2.6552244491119 2.6109199299273 2.7368193347938 2.6481198158158 2.847688403083 2.6743432908593 2.65615223975 2.9072512015674 2.5559863469809 2.2847568443355 2.5869994945996 2.5142943067804 2.3455244086471 2.6894253791023 2.7024229070776 2.4096657922389 2.9435815788102 2.618438851617 2.4767081767921 2.5382589650504 2.6304338454232 2.5447277650137 2.6231330108649 2.391586150738 2.8448789457226 2.7438490302725 3.0090294157118 2.6961492219584 2.6377919313816 2.6883880631956 2.8742391637265 2.7634860609705 3.0265830220298 2.7275567335216 2.9061513751735 2.8913008551223 2.6564857148023 2.7341047019518 3.0365287660325 3.2274556383253 3.166471528853 2.5811974772484 2.7691876595492 2.8085584953138 2.8666526961136 2.5403678492057 2.7268662378884 2.9062064442246 2.701292768325 2.6120223116518 2.8124093324358 2.6157989655396 3.4249986985914 2.4820046819875 2.5535099559005 2.3761437265042 2.6129180458658 2.3063902524602 2.4586058303159 2.3227563046032 2.3711992155017 2.5464425991892 2.3333645811458 2.3084873481066 2.8874428420859 2.4578039741012 2.5152086012825 2.605483235886 2.6618198794576 2.5388216951413 2.6272358442415 2.4909612407754 2.7023645921611 2.6688424951504 2.2844070676152 2.5208266556621 2.5501743841139 2.3888331006245 2.02169440052 2.5258298698383 2.5766583995981 2.7527619386885 2.6139236664068 2.7643707937514 2.6316070994467 2.2493584529336 2.7662064667167 2.5790988816922 2.7128155331005 2.5427771553194 2.8680288011256 2.5583179483275 2.8872320382769 2.5841695636641 2.2701099883195 2.2669337882714 2.6803343132616 2.6902525391416 2.7724755052707 2.5448309237113 2.4220527352155 2.2213373001596 2.8099348404606 2.6186163494601 2.8326655180328 2.6361086076308 2.6846524194631 2.4419190942659 2.4707235324196 1.9190177769175 2.5438763163328 2.4085685267998 2.0557086055191 2.2099488168414 2.4212908464409 2.4615259250585 2.4777000702792 2.5379223816625 2.8961777868355 2.4633865006394 2.2316761208073 1.9708472949982 2.1651029027862 2.6402533112717 2.4024922916262 2.4296566654446 2.1058683506744 2.6721453655235 1.8504783965613 2.7275785015537 2.5124298932083 2.5323904152582 2.4861021913359 2.7549237473891 3.2935815094897 2.3920921281883 3.0800214492298 2.5080286904102 2.5221293676574 2.5633737292624 2.6037539019007 2.3789931944299 2.5954787100243 2.507950003667 2.532097739831 2.2601393130532 2.6351818255097 2.4762353746987 2.6609089739289 2.114981815897 3.0901332866562 2.5285057023478 2.450372669313 2.3190491078632 2.4055085880686 2.5221206485056 2.6240321408599 3.0190270839551 1.7876483563654 2.6876907735374 2.614442176914 2.3554834129906 2.4632962868071 2.0622234522511 2.1867587452032 2.5298705691793 2.2745844533401 1.8969361552044 2.4594933953026 2.3692561415708 2.8083261119288 2.1410337525361 2.3377182808007 2.3078210497123 2.3720941982968 2.0678823638055 2.1076038600364 2.4864161460576 2.6554553785432 2.5018507916212 2.452185885961 2.2873281862272 2.3343884998347 2.0167948751356 2.4696894098154 2.220430255797 2.2295173805871 2.4878738590537 2.3904149429886 2.5736216235848 2.3616152510912 2.1707191136524 2.5164281022597 1.8763987988523 2.1828925164565 2.4349171586302 1.6731369968209 2.2960166991315 2.2846195433373 2.522132133636 2.3502071502192 1.853212530754 2.547011028907 2.5059227219545 2.5925575786851 2.6003776891044 2.4472986458257 2.360906180511 2.4398652815246 2.4296992904435 2.44426754921 2.1416846225195 2.0445892539641 2.6093028096844 2.5140282049917 2.3453882658368 2.4213918144416 2.3363622118857 2.6725392921039 2.3851318799785 2.2642555626322 2.2427877907361 2.2760537133155 2.3853473593813 2.5398571905525 2.9666293727743 2.6116036653105 2.0431455155985 2.4873231807109 2.8307560559525 2.0065235205675 2.4083303997672 2.4094405253466 2.3021445076356 2.2994697863389 2.629945044733 3.0482889046388 2.395670980135 2.338617196131 2.3361021172194 2.3748448707865 2.7023080853403 2.4529786495004 2.1738578409596 2.1707647328203 1.7287387279317 2.1335716470048 2.209426418526 1.7156728521561 2.7596768453766 2.6279480497132 2.3309699444468 2.2676690212376 2.6965781469317 2.6061409691515 2.015002612224 1.3503215429841 2.255121652085 2.3177050815777 2.1502574927538 2.830112370399 2.0620588255999 2.0466357263773 2.5244929743081 2.730628445774 2.4347847332231 2.3220383317248 2.413787289727 2.3496174527038 2.1862175022075 2.467469480998 2.177764875915 2.3453755587963 2.4921132873553 3.2097567614353 2.1742308158422 2.0297114946121 1.972401169512 2.1872698169235 2.1455013230185 1.9887750927778 2.1931911946349 2.2631027540083 2.3018540989357 2.0723516715522 1.9969267633423 2.4893576505766 2.4298838079112 2.5944140328422 2.3025668120848 1.863580086716 2.4100072006741 1.7371028140147 1.6536154245464 1.9084341750807 2.3375059276352 2.7078771271587 2.0027023435086 2.7070267061077 2.1463972302455 2.1587462520025 2.0141443766783 2.2674761063236 2.0251202102988 2.4977796031576 1.935845351876 2.2830204648313 2.0843680695567 1.701821920329 2.1324794482596 2.1751290297885 2.2655028768192 2.2198490635965 2.2856681429763 2.0890981727126 2.3824058633267 2.7466907811824 2.0650553375882 2.3001607606002 2.2071407779352 2.1662969831326 2.3483709758416 2.1327045030784 2.1431606932049 2.6601792954078 2.4363816157091 2.1648743231571 2.8506073185439 1.5919433734926 2.0301291609357 2.6885761868633 2.1210818038859 2.3107023388604 1.3016156010205 2.0742499987457 2.7436945067746 2.1874204115699 1.8365251498222 1.9551568466482 2.3079579029176 2.1264879206056 1.8939402413339 2.1389651731087 1.9575717611595 2.093708432417 1.9463425086451 2.3292822846187 2.0911900125651 1.9001765136812 2.1017548790494 2.0936016020295 2.1489708191225 2.0382823322401 2.0739400519414 2.8962484609835 1.9860306920721 2.1670407510676 2.33158778457 2.1691171148619 2.0243427983769 2.219815897436 1.7939255086302 1.96550795808 1.8545532682267 1.934281279816 2.0762251537658 2.6946537342875 2.3219346301616 2.0198162796879 1.7893836886361 2.3833081297632 2.0521970578934 1.3512284308074 1.8265663522389 0.65865479870358 0.82955401516086 2.021031716525 1.983666367709 1.8639631282565 1.4574415296886 2.0980095553294 0.94552083175683 2.4963600829564 2.6756116992352 1.9750273978569 1.4939499321865 1.2825479300056 1.8838478784546 2.5029833492597 1.6611065802847 1.7919479461294 1.8732216151691 2.4470449228766 1.8468292383432 1.9010878265247 2.0283969815475 1.7152398193922 2.1670115454946 1.9409209112395 2.0937443852643 2.0264678678683 2.0637949151887 1.869745571717 1.6215358350454 1.998025323944 2.2738296416643 1.6154832037572 2.4672220816832 2.5915539124611 2.4438567818152 1.9146234085279 2.3112408104566 1.6689072079642 1.5758136282195 1.7325253999582 1.6543876914151 1.8725852382682 2.1292693110209 2.1690220978216 2.8740884249861 1.7484115815885 1.7354106521346 1.5998115028366 1.6644846248293 2.3943003030087 1.9751041148048 1.8014176920644 1.985792726341 1.7685979412295 1.4445886597725 1.4234128699198 2.000875757914 1.6346899486097 1.5530902136273 1.62014146337 1.8672376836812 2.2502797714321 1.3230198841079 1.8973361756178 1.1872809954958 1.435359473732 1.6118933322069 1.9673535416062 1.7125181840322 2.2382023111308 2.0687575444171 2.0464545915902 2.1416947665597 1.7381047966995 1.9103866352469 1.8989921721742 1.7614112343958 1.8903804451863 1.9770854343586 1.5639147303779 2.0540264541044 1.8086947907188 1.7163870051228 1.849918825312 1.9036456047508 1.9072805438816 1.2350967965881 2.0378356774586 1.7219897755059 1.8110787084744 1.5157157047339 1.8384899727184 1.5696833367046 1.5278377713276 1.7134436572304 1.7446348849932 1.5612419907757 1.7548197884185 1.6468973481833 1.3931494830944 1.5197217284522 1.601837736062 1.2675976390744 1.7393441289523 1.3630097950344 1.7755626708565 1.5901290411817 1.6386516874587 1.3384542235267 1.4199886514443 0.98694808350398 1.2469339635929 1.4240195614625 1.3578839876734 1.2634058947188 1.560763394219 1.4627359416137 1.6248966534565 1.1773461836149 1.785894634882 1.9457883920957 2.0826456896475 1.7316489325622 1.5142056416522 1.5701303839582 1.6633211441388 1.5048029082684 1.4050354449614 1.9143221630643 1.027698777083 1.5464357327326 1.5957594097148 1.8306357418577 1.743764367277 1.629940462504 1.5259334380452 1.4995662740632 1.2957408518183 1.1768451397017 1.3362672096319 1.5244498024887 1.401772141166 1.5315280537645 1.202872748635 1.8315980120349 1.4823172041602 1.7489453621127 1.8183361147955 1.3999553155107 1.3853945135992 1.6639508525476 1.6722455078287 1.3615158341772 1.4866771558183 1.407924572982 1.5353624930462 1.3398026006289 0.83027215815748 1.3096709037797 1.5959137505078 1.3319773864834 1.1142670598571 1.5294004394043 1.3872758499778 1.326501685669 1.2241293470839 1.5352174271196 1.1256685978071 1.2720508203676 1.2936798785565 1.2982758728106 1.1161386199406 1.2250188173521 0.77383594662971 0.97777617834962 1.1117515072618 0.96836478952532 1.3324688622459 1.4010400056755 1.2990070148143 1.0595389558861 0.82468315855997 1.1204836906495 1.155356819765 1.6609277456988 1.3041738619925 1.1671230962479 1.049783344703 1.234922751585 1.0802839155478 1.2964633640712 0.51883498660899 1.1788126492968 1.5510940370461 0.98477521769408 1.1725864359283 0.79867159880039 0.86064320128656 1.081940282014 1.3048448665119 0.96456836396439 1.0052697074088 1.0048256150587 0.70282541645609 0.99320369087268 0.53912374622731 0.45984455082199 0.51956392351746 0.67357665346486 0.8543895094248 0.90056830952534 0.89258580635958 0.79169419694254 0.83948915580436 0.9181870519588 0.92082013797036 0.43077131592691 0.79467506718919 0.97093700135782 1.656292548799 1.707250826811 1.2359348588324 1.42240333126 1.1584962527037 1.274420636351 1.236888202808 0.72470391262635 0.82995436407111 0.68193232954262 0.6961014793316 0.71506471423607 0.81577115760401 1.0966744125815 0.7301235421338 0.66241691956997 0.78986649460648 0.88135647920976 0.58956871591054 0.56375838731914 0.80400392231303 1.4450501113469 0.83570744768534 1.4252628064872 1.2221985491879 1.4909264037239 1.5772714118296 1.458211155403 1.4169060113413 1.2272419337648 1.3409928017575 1.3398807513752 0.88958306239588 0.73816172942109 0.55546919521777 0.45690138839699 0.44501822885307 0.93306735191564 1.1690169343936 1.1205611635222 1.4258314943048 0.85568878510311 0.94391103109422 1.0406199320808 1.3724315793712 1.0854821569384 1.3254391939184 1.1798589413348 0.99675712076555 0.85278825383036 0.76488719890176 0.58140592313544 0.80049266481811 0.46899494058019 1.1168794541529 1.1258530289602 1.519064005843 1.2294653785535 1.3302956027615 1.3107676404739 1.5582164794758 1.1248800631617 1.0567719650297 0.68192854126707 1.0197788726966 0.95595746703783 1.0228574291326 0.99603685035738 1.1657108712612 0.54983196372285 0.65237819300833 0.73805822409949 0.59346829615166 0.86502298166811 0.52713329435234 0.62040495919737 0.89271226006419 0.98540380299133 1.1267400181673 0.73920343038844 1.2371043247283 0.82056485153687 1.4187290089091 1.0659080006674 0.8334577541644 1.2025560908928 1.0025480405755 1.1478493099485 1.0990229067118 0.50938333132914 0.41375488163058 1.0762356833129 0.73464846724753 0.81321406697052 0.69622581550971 0.73709551800374 1.1944011445941 0.57976270093884 0.73500138261512 0.9160435544809 0.78842568890191 1.0518186138549 0.97476201361561 0.66114879771921 0.55009588579434 1.1904323417842 1.117718993862 1.2623653211611 0.95404247317049 1.007609536238 1.1029898922729 1.0263886613234 0.85145996426042 0.92539280707992 1.0363575721174 0.64721700983336 0.44622736324813 0.89846925544965 0.58957718438696 0.85469664119357 0.86601719366645 0.39183113466208 0.50806792303205 0.55595402477674 0.63293184626228 0.9361796472701 1.0412312619335 0.84616849648712 0.53260254126914 0.94785556876048 0.51778697156888 0.51040638990704 1.126242325815 0.60689178197834 1.4248066132963 1.2522972470997 0.80967244593432 0.86196717948251 0.58848206257523 1.2284772573609 0.70651808432523 0.64691291531267 1.7179369826503 1.3895509199479 0.68846310722237 0.84253568182034 0.77901306689943 0.576597554077 0.53147560226046 0.57946528168076 0.48595954824371 0.62957324561241 0.48215497736666 0.54787305650913 0.60763881620233 0.8100091828021 0.67567610287341 0.6071815789847 0.48591518770992 0.73952731641241 0.52787394163375 1.6967255684377 1.3713491130429 1.2151052824777 1.1022551269355 0.54868638931006 0.60270086979382 0.68536592181535 0.51904788389584 0.50593358905116 0.66319099901672 1.0362805480822 0.80545190589824 0.76913181822987 0.647776152384 0.48844370137466 1.2247732451314 0.90896057776543 0.64241643882835 0.5038940695051 0.69025757305897 0.54802536781443 0.57821049322316 0.49331174739507 0.51779977492906 0.66092449676547 0.81379073291093 1.2138415127477 0.72215645520237 0.67052642166418 0.76711477398606 0.87035690394526 0.79842520470277 0.48907889613462 0.72712002157945 0.87280677844369 0.93753845755089 0.97824105903981 1.0482480893434 0.99082463612596 0.88920396934153 0.82587429918844 0.95026447703722 0.70634082387372 0.7421631534917 0.67537984786216 0.93152980868039 0.52999546914603 1.1897132253032 0.88580852212633 1.3403678939677 1.1971122884866 0.80166259884206 0.75774188968039 0.79646487654115 0.62714445266555 0.72369280262421 0.49008495353532 0.96361022674142 0.72265132636401 0.82430511269449 0.95802849681174 0.87030740248575 1.2084681864345 0.74006502791642 0.78094972208005 0.86575222670399 0.83934986829178 0.72261128931965 0.54938201122457 0.61644262999223 0.98355161614376 0.7777725737068 1.0259311593767 1.1183941044804 1.1138209602329 1.5196840507226 0.48902084535515 0.63912027442735 0.98926907595462 1.1347709330997 1.6147931538002 1.4824343874789 0.90943648294086 0.79106600759151 1.8041589851063 1.6305714097508 1.3594563128047 1.4982817365963 1.3257187214661 0.76093014450214 1.5845893276991 1.3311244496595 1.1879279423361 1.2687373610194 1.1399401657804 0.87620596386488 0.95069977559088 1.1160558694207 0.94898296451707 0.95192621425392 0.88289788797063 1.2597968523356 1.5200912287638 2.0555798479821 1.7577348732975 1.5000846968382 1.2745431029498 1.1481210126445 0.76414447902605 1.2649567258169 1.0636800329741 1.3448840550313 1.0495895870305 1.049523246179 0.8947537189597 1.216695117423 0.84794772682526 0.8192182830836 1.1524250482804 2.0189434253268 1.891627503081 2.0119400013533 1.6425769156192 1.1151503684743 1.3594931277702 1.4974965580259 1.4269316704451 1.3730443389396 1.3278758394881 1.3366814296646 1.4728277489312 1.1949125175966 0.99361067790147 1.8588762704804 1.6758497952735 0.75021257804192 0.45241050916918 0.60901932609193 0.51806400407363 1.2627333342052 1.4978060173295 0.56182352319455 0.4773690450212 0.56862545907487 1.0308