# vtk DataFile Version 3.0
d-2__ created by libgimli-v1.5.0-1-g5991b6ac
ASCII
DATASET UNSTRUCTURED_GRID
POINTS 803 double
8.3333333333333	0	0
8.5	-0.29429712828708	0
8.6666666666667	0	0
21.166666666667	-0.35154628884587	0
21.333333333333	0	0
21	0	0
-0.13949540192174	-0.65832226163824	0
0.26765699968102	-1.1941152153012	0
0.50098922076846	-0.451860121227	0
11.833333333333	-0.28867513459481	0
11.666666666667	-0.84084908820295	0
12	-0.57735026571174	0
-1	0	0
-0.82347194173878	-1.6006755924119	0
21.666666666667	0	0
21.5	-0.55217395360815	0
1.1666666666667	-0.35154628884586	0
1.3333333333333	0	0
1	0	0
1.5	-0.55217395360814	0
23.61842901153	-0.60378553647188	0
24.166666666667	-0.55217395360814	0
23.833333333333	-0.35154628884586	0
1.6666666666667	0	0
8.1666666666667	-0.35154628884586	0
1.8333333333333	-0.35154628884586	0
2	0	0
4.8333333333333	-0.35154628884586	0
5.1666666666667	-0.55217395360814	0
5	0	0
2.6666666666667	0	0
2.3333333333333	0	0
2.5	-0.35154628884586	0
2.1666666666667	-0.29429712828708	0
8.4079889429861	-0.75760412093209	0
9.0144333430414	-1.1439190584088	0
8.8333333333333	-0.55217395360814	0
13	0	0
13.166666666667	-0.29429712828707	0
13.333333333333	0	0
3.1666666666667	-0.35154628884586	0
3.5	-0.55217395360814	0
3.3333333333333	0	0
16	0	0
16.166666666667	-0.29429712828708	0
16.333333333333	0	0
3.6666666666667	0	0
3.8333333333333	-0.29429712828707	0
4	0	0
4.3333333333333	0	0
4.1666666666667	-0.35154628884586	0
27	0	0
26.833333333333	-0.35154628884586	0
27.166666666667	-0.55217395360814	0
3	0	0
16.5	-0.35154628884586	0
16.666666666667	0	0
2.8333333333333	-0.55217395360814	0
13.5	-0.35154628884586	0
13.666666666667	0	0
4.5	-0.55217395360814	0
4.6666666666667	0	0
3.9253443903472	-0.75760412093208	0
29.833333333333	-0.29429712828707	0
30.166666666667	-0.35154628884587	0
30	0	0
35.905165514021	-0.87509566217462	0
36.166666666667	-0.35154628884586	0
35.661339523067	-0.61041034021497	0
5.5	-0.29429712828708	0
5.8333333333333	-0.35154628884586	0
5.6666666666667	0	0
5.3333333333333	0	0
27.333333333333	0	0
27.5	-0.35154628884586	0
35.833333333333	-0.29429712828708	0
6.1666666666667	-0.55217395360814	0
6.3333333333333	0	0
6	0	0
37	0	0
37.166666666667	-0.35154628884586	0
37.333333333333	0	0
10.741322276319	-0.75760412093209	0
11.175685896383	-1.113902458684	0
11.166666666667	-0.55217395360814	0
6.5	-0.35154628884586	0
30.795730030397	-1.0103532830333	0
31.229185900173	-0.87228466782526	0
31.000045632922	-0.57199295442671	0
31.666666666667	0	0
31.833333333333	-0.55217395360814	0
32	0	0
40	0	0
40.166666666667	-0.35154628884586	0
40.333333333333	0	0
6.8333333333333	-0.29429712828708	0
7.1666666666667	-0.28872883340808	0
7	0	0
7.2211097499487	-1.0538354750778	0
7.0053271435993	-0.61041034021496	0
6.7615011526461	-0.87509566217461	0
9.5	-0.29429712828707	0
9.3333333333333	0	0
9.1666666666667	-0.28872883340808	0
7.3333333333333	0	0
39.666666666667	0	0
39.833333333333	-0.29429712828708	0
13.674580112811	-1.7184248716052	0
14.353791495618	-2.0265268011931	0
13.958469529133	-1.3940906823913	0
7.6666666666667	0	0
7.8333333333333	-0.55217395360814	0
8	0	0
12.994672856401	-0.61041034021496	0
5.5920110570139	-0.75760412093209	0
5.8348685364776	-1.5356869134354	0
9.8333333333333	-0.35154628884586	0
9.5718321806872	-0.87509566217461	0
10.166666666667	-0.55217395360814	0
7.33337923226	-0.57364431858631	0
10.36828810089	-1.6552861219901	0
6.6666666666667	0	0
36.666666666667	0	0
36.833333333333	-0.29429712828708	0
37.5	-0.55217395360814	0
24.333333333333	0	0
24	0	0
12.503171480364	-0.86507900392268	0
12.328351644367	-1.416191408927	0
12.778890250051	-1.0538354750778	0
11.5	-0.28867513459481	0
19.666666666667	0	0
19.833333333333	-0.35154628884586	0
20	0	0
9.6666666666667	0	0
20.5	-0.28872883340808	0
20.666666666667	0	0
20.333333333333	0	0
20.905165514021	-0.87509566217461	0
10.5	-0.35154628884586	0
10.333333333333	0	0
9.3280061897341	-0.61041034021496	0
10.833333333333	-0.29429712828707	0
10.666666666667	0	0
22.833333333333	-0.55217395360814	0
22.5	-0.72876886968591	0
22.915493514149	-1.1101467813362	0
5.2020787936337	-1.0219070688786	0
18.833333333333	-0.29429712828707	0
18.925344390347	-0.75760412093207	0
19.166666666667	-0.35154628884587	0
22.666666666667	0	0
22.5	-0.35154628884586	0
13.833333333333	-0.55217395360814	0
14	0	0
16.833333333333	-0.55217395360814	0
0	0	0
14.166666666667	-0.35154628884586	0
14.333333333333	0	0
14.5	-0.55217395360814	0
14.833333333333	-0.35154628884586	0
14.666666666667	0	0
15	0	0
15.166666666667	-0.55217395360814	0
15.333333333333	0	0
2.0948344859795	-0.87509566217461	0
2.2850956781966	-0.60378553647187	0
12	0	0
11.666666666667	0	0
22.166666666667	-0.95506458788032	0
22.166666666667	-0.55217395360814	0
21.833333333333	-0.7287688696859	0
15.5	-0.35154628884586	0
15.666666666667	0	0
17	0	0
20.833333333333	-0.29429712828707	0
20.661339523067	-0.61041034021495	0
9	0	0
14.166666666667	-0.72876886968591	0
17.333333333333	0	0
17.166666666667	-0.35154628884586	0
18	0	0
17.666666666667	0	0
17.833333333333	-0.55217395360814	0
17.5	-0.29429712828708	0
16.258677723681	-0.75760412093209	0
12.833333333333	-0.28872883340808	0
18.166666666667	-0.35154628884586	0
18.333333333333	0	0
17.407988942986	-0.7576041209321	0
19	0	0
19.333333333333	0	0
18.666666666667	0	0
12.166666666667	-0.28867513459481	0
12.333333333333	0	0
15.833333333333	-0.55217395360814	0
20.166666666667	-0.55217395360814	0
19.5	-0.55217395360815	0
7.5	-0.28867513958836	0
23.5	-0.29429712828708	0
21.833333333333	-0.35154628884586	0
22	0	0
26.592011057014	-0.7576041209321	0
22.333333333333	0	0
23.934922518609	-1.0280995368212	0
25.166666666667	-0.35154628884587	0
25.5	-0.55217395360815	0
25.333333333333	0	0
23.166666666667	-0.35154628884586	0
23	0	0
26.666666666667	0	0
26.5	-0.29429712828708	0
23.666666666667	0	0
23.333333333333	0	0
26.166666666667	-0.55217395360814	0
26.333333333333	0	0
26	0	0
24.761501152646	-0.87509566217461	0
24.951762344863	-0.60378553647187	0
24.5	-0.35154628884586	0
33.5	-0.35154628884586	0
33.238498847354	-0.8750956621746	0
33.833333333333	-0.55217395360815	0
24.666666666667	0	0
28.166666666667	-0.35154628884587	0
28.5	-0.55217395360815	0
28.333333333333	0	0
25	0	0
24.833333333333	-0.29429712828707	0
27.761501152646	-0.87509566217461	0
27.951762344863	-0.60378553647187	0
29.333333333333	0	0
29	0	0
29.166666666667	-0.55217395360814	0
25.833333333333	-0.35154628884586	0
29.947484315848	-0.62869436758688	0
30.409983486194	-0.76921735210505	0
34.166666666667	-0.72876886968591	0
34.166666666667	-0.35154628884586	0
25.666666666667	0	0
35.445556916718	-1.0538354750779	0
35.333287434407	-0.57364431858632	0
29.666666666667	0	0
29.5	-0.28872883340808	0
26.834868536478	-1.5356869134355	0
30.833333333333	-0.28872883340808	0
30.671365010853	-0.57276869068256	0
27.666666666667	0	0
38.204670056311	-1.4270134762662	0
38.601589185276	-1.0280995368212	0
38.094834485979	-0.87509566217463	0
28	0	0
27.833333333333	-0.29429712828707	0
36.662074300781	-0.56642454030296	0
28.666666666667	0	0
31.746636025369	-1.1187108767801	0
28.833333333333	-0.35154628884586	0
33	0	0
33.166666666667	-0.29429712828707	0
33.333333333333	0	0
34.5	-0.55217395360814	0
34.731644951192	-0.92970615345739	0
35.666666666667	0	0
35.5	-0.28872883340809	0
30.333333333333	0	0
31	0	0
31.166666666667	-0.28867513958836	0
31.333333333333	0	0
38.285095678197	-0.60378553647188	0
37.833333333333	-0.35154628884586	0
30.666666666667	0	0
30.5	-0.29429712828708	0
36.5	-0.28872883340808	0
33.666666666667	0	0
36.41952417611	-0.77749898599357	0
38.5	-0.35154628884586	0
38.833333333333	-0.55217395360815	0
38.666666666667	0	0
29.657657699283	-0.83081436360664	0
40.168201869811	-1.5356869134355	0
40.5	-0.55217395360814	0
39.925344390347	-0.75760412093211	0
32.994672856401	-0.61041034021495	0
31.5	-0.35154628884586	0
43	0	0
42.666666666667	0	0
42.833333333333	-0.29429712828707	0
43.404176293252	-0.42323554094762	0
35.88498281448	-1.5034830799843	0
41.166666666667	-0.29429712828708	0
41.074655609653	-0.75760412093211	0
41.5	-0.55217395360814	0
41	0	0
41.333333333333	0	0
34.333333333333	0	0
32.166666666667	-0.35154628884586	0
32.333333333333	0	0
39.5	-0.55217395360814	0
39.333333333333	0	0
36.500673817427	-1.6307728168531	0
40.833333333333	-0.35154628884586	0
34.666666666667	0	0
35.333333333333	0	0
35.166666666667	-0.28867513958836	0
35	0	0
36.333333333333	0	0
36	0	0
12.333333329009	-0.57732068917697	0
37.666666666667	0	0
7.9035368819631	-1.2622568520387	0
28.737635378193	-1.2311528923644	0
29.212976838479	-1.0424777721347	0
28.833333333333	-0.7287688696859	0
12.66662076774	-0.57364431858631	0
38.166666666667	-0.29429712828707	0
38.333333333333	0	0
12.5	-0.28867513958836	0
39	0	0
39.166666666667	-0.35154628884586	0
20.347766676375	-1.1439190584087	0
19.833333333333	-0.7287688696859	0
40.666666666667	0	0
42.5	-0.35154628884586	0
10	0	0
18.5	-0.55217395360815	0
41.666666666667	0	0
23.428167819313	-0.87509566217462	0
42	0	0
42.166666666667	-0.29429712828707	0
42.333333333333	0	0
42.744785246826	-0.77776727251482	0
41.833333333333	-0.35154628884586	0
38	0	0
41.542494325991	-1.1832128457714	0
2.6015891852757	-1.0280995368212	0
13.258353909981	-1.6064355191183	0
4.8333333333333	-0.72876886968591	0
15.5	-0.7287688696859	0
15.8687454603	-1.0219070688786	0
16.501535203144	-1.5356869134354	0
14.833333333333	-0.72876886968591	0
12.666666666667	0	0
17.797921206366	-1.0219070688786	0
18.166666666667	-0.7287688696859	0
36.905165514021	-0.87509566217463	0
32.666666666667	0	0
32.5	-0.55217395360814	0
34.833333333333	-0.28867513459481	0
34.999999995676	-0.57732068917696	0
34	0	0
35.169838147031	-0.8650790039227	0
42.285095678197	-0.60378553647188	0
41.877780449001	-0.80261564071807	0
13.238498847354	-0.87509566217461	0
11.333333333333	0	0
11.697267761921	-1.4738194081615	0
12.166692603518	-0.86967323340335	0
3.1666666666667	-0.72876886968591	0
11	0	0
18.535412126967	-1.0219070688787	0
25.833333333333	-0.7287688696859	0
25.268255851942	-1.0280995368211	0
28.268255851942	-1.0280995368211	0
[...]
CELL_DATA 1424
SCALARS Coverage double 1
LOOKUP_TABLE default
2.8517079102248 3.1112551269728 2.018583224915 2.5770315443741 1.8009176367111 2.9713303971274 2.8295953822393 2.3081299677848 2.7233504421415 2.5984561645413 2.8011439607737 2.4056806483904 2.8487782980679 2.6398586479159 2.6802682451459 2.6031296917787 2.4637817500023 3.242363104872 2.6056824812651 3.2312265221019 3.2791857401236 3.2487237705517 2.9226357801041 2.9672345460043 2.9423624239695 2.9475322488164 2.942203325832 2.8601784054962 2.5249322440264 2.9216110447924 2.9916039791016 2.6386514376681 2.7519226843147 2.9658952370304 2.867559742443 2.7257420495357 2.9693615723822 3.3215127629076 2.4808601565176 2.7082651392001 2.6396355749593 3.0245173457193 3.1455696457499 3.2672389032792 2.8189531681042 2.4512423606852 2.8475645110883 3.2837400480312 3.2805650936271 2.1377887385745 2.976479703769 3.055535692472 2.6877724556378 2.3607942298902 2.7903101315324 2.620053797317 2.4969522259183 2.4224670632153 2.8653072564714 2.9397751797407 3.3364351456015 2.8557334600975 3.1213629357177 2.355633544082 2.5943339934373 3.0826463888181 2.9829459419691 2.8942650350899 2.6410646096847 2.7729209600918 2.9152820324998 2.6994143973048 2.8105301400897 2.5787063582416 2.4006420134315 2.7149653822283 2.8081027432092 2.717286672394 2.4463382891581 3.0054245536724 2.7381779147582 2.5798520295681 2.7207388541735 3.0693093610447 2.5882658653314 2.755436831129 3.0111580408195 2.8604449026134 2.827304119833 2.3216400593267 2.7593073274638 2.416668982887 3.0608300538781 2.6205048451895 2.5011523345813 2.9344985247125 2.3501450426729 3.0202732081004 2.715323829881 3.0311620711346 2.6187750959001 3.0718521947082 2.644047582935 3.0022105704977 2.814717281478 2.68464824858 2.7927860822808 2.7464271853036 2.8236382233048 3.026788224113 2.6164821432171 3.2366305927774 3.2746811623537 3.0582871387272 2.6164398163912 2.8488941369482 3.1572947992722 2.7651744250447 3.1483574712768 2.8653521723246 2.7322720611794 2.8583918606087 2.9262337617156 2.7706171729042 2.6968674668024 3.0653485206098 2.7128263284996 2.8034014502221 2.902207142607 2.793122953889 3.3238161539562 2.7200393736451 3.0322762947046 3.2701585092721 2.6223822258856 2.9077911921064 2.8592778591417 2.9384461038506 3.193180325408 2.8899458589801 3.166871152687 3.0997216233773 2.7103365152182 2.7069704607728 3.0771178342792 2.9311750419078 3.4061797236316 2.978212905936 2.7318965780987 3.1930901626534 2.8311251063651 2.7276029991387 2.9909365386808 3.2159317206032 2.7786127235931 3.1868037375241 2.5726412754124 3.0449781157643 2.9622918848759 2.8201171632577 2.5630439990063 2.803659865777 3.0977032494086 2.3195868679587 3.4056749081308 2.9849482763503 2.7425271294981 3.0678742942623 2.6002642639149 2.8478634999972 3.2218694219299 3.1636141668969 2.901799169673 3.2093399623904 2.6457813948178 2.9004324648231 2.6468303365269 3.1825686964463 3.2178040953312 3.4123143027179 2.5910629177915 3.0933703645726 2.9609907570539 3.0948104337658 2.9729106440884 2.8754052693768 2.7028701612703 2.7519721921044 2.7165708747729 2.4077159348762 2.7654219102111 2.7310050931722 2.8632390919309 2.9252811817789 3.0852896853558 2.2990304329193 2.4295938765624 2.7776188283184 2.4731339497906 2.9885335747445 2.9266393903065 2.836680013943 3.1868069965618 2.9069758918275 2.3110241001366 2.5042705917572 2.6254688352534 3.0510414911983 2.7159107040168 2.9506967440297 3.2065608713682 2.9534431619264 2.6468078940473 3.1287977960853 2.638239170675 2.9575423290523 2.7700818338418 2.6760579487951 2.743638946686 2.4365342454132 2.8566058491729 2.5580469678158 2.5374429006195 2.6469410893387 2.485976211936 2.8212751775578 2.8267335631924 3.082711215004 2.8732847589552 2.7288528997299 3.0576250070852 3.1133884418238 2.527678988157 2.8648417499948 2.516625295541 2.8684954608528 2.696679005429 3.2400197778241 2.9119583292701 2.9595743160542 2.8360252717215 2.6851737897535 2.7106280224922 2.8642737466479 2.6589277386712 2.9802228197364 2.8494417034271 2.1525197857819 2.7106469250365 2.7440549226222 2.9495631537881 2.5913689601831 2.7018883141919 2.618382801724 2.7626300688952 3.0825487947033 2.6399723352038 2.8942429120166 2.3036910269722 2.4670625636199 3.1525132125858 2.3139657318344 2.6342875328274 2.7793667355149 2.5740062546071 2.8008793412358 2.5235239655758 2.6034831257123 2.7051607164566 2.2648605978263 2.5422977557275 2.6434979918546 2.5350410161434 2.5395480014805 2.4594103608583 2.626415626603 2.7438291567619 2.7899922669254 2.609717120357 2.6145927846256 2.7816774228589 3.2407336720957 2.8831839788467 2.5113626691849 2.6467871414047 2.6231627684107 2.7379122647639 2.6830177291269 2.7610304150521 2.8345914901545 2.6674252530583 2.7783331939124 2.793077767681 3.4233000369424 2.8520355176013 2.8910979850956 2.7298196982388 2.7975548129322 2.8227471716743 3.4201963631687 2.8635991222717 3.0041688254828 2.7301358882312 2.567539280707 2.9497210227114 2.7585735472229 2.8139739260773 3.4121494719092 2.9366796227365 2.9353683958116 2.9243318189966 3.3681167429394 2.6678711649005 2.7856464123959 2.5900325795427 2.3945677565037 2.8959330713102 2.5969734575235 2.6829297298571 3.0990720960775 2.6987026472057 3.0273367672593 2.8054383442334 3.0038108179306 2.3014702531381 2.4032683030005 2.5700462469567 2.549116988802 2.6416795697997 2.7554515714447 2.5830830385035 2.4921905669405 2.5958177535735 2.8120601499281 2.7677591045383 2.900740144292 2.3672197110309 2.2557375679634 2.855711172902 3.2843639556401 2.9681542025442 2.7940388796791 2.6398222480671 2.6604257205549 2.6152911156981 2.7389879660795 2.6525938909466 2.8446810756699 2.6781639190102 2.6581944870388 2.9057093551061 2.5458762174052 2.2790216929113 2.5761273864679 2.5065138302253 2.3408041268792 2.6901125960094 2.6944349656421 2.4066359814348 2.9399886477699 2.6173762877582 2.4792648051985 2.5430328374057 2.635846594751 2.5510688787532 2.6264332399036 2.3993086340771 2.8452670728584 2.74542330331 3.0052238882586 2.6980581136738 2.6422956611412 2.6895603727012 2.8766363890018 2.7649503989916 3.022840766266 2.7288736965577 2.9061044943424 2.8877866827825 2.6594925069235 2.7337227358708 3.0347934535859 3.2243382685021 3.1600969663667 2.5859979000536 2.765162932063 2.8070369258441 2.8657488250349 2.5410277107701 2.727983433129 2.9052565391846 2.6958695576277 2.6087900985212 2.8080339653103 2.6128566391352 3.4232856742777 2.4821706302726 2.5486022046272 2.3720933584127 2.6079452982245 2.2993457311101 2.4583980279716 2.3198753964997 2.3696991026394 2.5470983864754 2.3378236636789 2.3166742458357 2.8816558561899 2.4569382291202 2.520372475437 2.6027149752158 2.6658744382942 2.5470943795907 2.6336220461689 2.4989923733178 2.7052556389072 2.6712827299854 2.2768828551711 2.5130063276141 2.5445800447681 2.3867068775264 2.0196767381588 2.5274530964309 2.5808601706856 2.7550451976091 2.6189479022782 2.7649512406358 2.6348373025203 2.2517261289515 2.7634539366442 2.5808406815466 2.7130792549327 2.5464248837072 2.8666082613968 2.5591309918151 2.8836667045464 2.5808626083429 2.2685679830696 2.2638377527131 2.6797787313626 2.6857700997438 2.7710934855043 2.5502158080368 2.4140199629568 2.2178264112863 2.809927969351 2.6218837923766 2.832968996145 2.6382473742359 2.6808587270097 2.4420728080375 2.4655309909771 1.9163787307018 2.5499016257284 2.4175998558534 2.0514176321409 2.2185341365432 2.4291825930384 2.4670371892416 2.4853069600359 2.5415771142534 2.8951589817346 2.4599999430417 2.2290021710293 1.975090608442 2.1588710681263 2.6386955458165 2.407088295764 2.4295824775072 2.1056130087254 2.669155387304 1.845081664455 2.7287458091263 2.5191455036053 2.5392384063177 2.4933225822422 2.7526764896023 3.2901769889538 2.3892236579485 3.0764954023182 2.5148359838075 2.5296399991307 2.5590127569046 2.6088123798469 2.3843908978667 2.5971874919385 2.517809300518 2.5415427631769 2.2634305832749 2.635041553397 2.4779367736937 2.6586976070994 2.1116887137936 3.0830603130693 2.5348176634072 2.4611785704694 2.3155329433179 2.4012540440603 2.5280998554775 2.6290640022062 3.0166406096123 1.7832222074059 2.6881863087383 2.6162462007375 2.3548245162673 2.4613713920745 2.0691729368398 2.1854999261082 2.5384043830847 2.285656438177 1.9047556536107 2.46729521613 2.3755035941715 2.8071112160126 2.1476984036335 2.3432666411716 2.3063156976416 2.375633329197 2.0633563817439 2.104654045025 2.4912134835275 2.6523749566074 2.5008698251765 2.4545361299509 2.2927352813937 2.3340795795167 2.0254312813986 2.4721843810191 2.230740975554 2.2303064935463 2.4955951766747 2.3999232723996 2.5787433409029 2.3731216953234 2.181879431566 2.5222801751602 1.8713265826432 2.1906400675892 2.4298448943394 1.6660803235022 2.2929178529858 2.2844024764839 2.5293597623529 2.3586268111673 1.849312399404 2.5479177572167 2.5123764447948 2.5895430566851 2.60154536317 2.4557010567515 2.3747238510826 2.4499732152449 2.4379581883145 2.4522341830223 2.141136082718 2.0440075188328 2.6136894470471 2.5139091532779 2.3468282698243 2.4247065658105 2.3395984807527 2.6682623379128 2.3985267005274 2.2731719101643 2.2403497528057 2.2730413675295 2.3938073802931 2.5446808146466 2.9633850409986 2.6104283653369 2.0421116389804 2.4869395728389 2.8283123156999 2.0006931027515 2.416525003113 2.4178092252664 2.3125794400957 2.3100567884761 2.6310635186367 3.048144990871 2.4032814400314 2.3481518619463 2.3450948447962 2.3848726915481 2.6983136758777 2.4643645909593 2.1861374410577 2.1815855114688 1.7216421005678 2.1330474371246 2.2075872028574 1.7290339998161 2.7555114449089 2.6233365968858 2.3409745441543 2.2789413264637 2.6948591997903 2.6067669064957 2.015641043632 1.3350152991509 2.269313537823 2.3292473275583 2.1472983780273 2.8273819350819 2.0590758984336 2.0437310478629 2.5315099176892 2.7303643934052 2.4412115262463 2.3307391797076 2.4157179511925 2.3483745889998 2.1911068452722 2.4673593279074 2.1776626259411 2.3436304012113 2.4898529273618 3.2036360964618 2.1710647537102 2.0292123935078 1.9831626014038 2.198641835265 2.1445016082795 1.9904153407022 2.1984849248425 2.2607843414151 2.3115197498659 2.0821051935159 1.9934878990848 2.4934031935907 2.4313443732601 2.5940539320543 2.30874908215 1.8670872935991 2.414045214227 1.7280215510797 1.6439173222599 1.9134041466908 2.3420549132748 2.7022000482158 1.9998155856864 2.7000384348875 2.1445802229647 2.1572891759146 2.0239191934208 2.2663110361582 2.0330952320053 2.4998045247367 1.9302343017529 2.2865557620184 2.0962189233463 1.7003926801458 2.1314370631953 2.1734896503329 2.2776657457818 2.2327287862165 2.2943485022911 2.094636110799 2.3827225278376 2.7473429157014 2.0736383086266 2.3108603325131 2.207131855964 2.1637902324071 2.3583109554917 2.1307270394182 2.1515723161162 2.6568382747173 2.4370482562839 2.1614339882817 2.8505383717564 1.5835624463028 2.0266417288414 2.6849283571022 2.1286962777667 2.3200689680108 1.2943248786775 2.0778291159963 2.7435237742052 2.1872449016522 1.8338829049889 1.9642748557362 2.3101783368965 2.1239195321496 1.8894922132965 2.1348243534753 1.9538044077998 2.0868124060088 1.9414617959866 2.330481387503 2.0954852488975 1.8935653599037 2.1035685446476 2.0935925571376 2.1598561379432 2.0498146786401 2.0818720339915 2.8952607567375 1.9837204903306 2.1701264850797 2.3367324120565 2.1737555521123 2.0289615071078 2.2314583583758 1.7895499766861 1.9712956941257 1.8629059456732 1.9308875865267 2.0838690887887 2.6935736949687 2.3211387759686 2.0200894568716 1.7869640091676 2.3891551328086 2.0502046167942 1.3529248849259 1.8196811402557 0.62959557646006 0.8040062061761 2.0319692827068 1.9912094371119 1.8722691820988 1.44461378843 2.1013719556407 0.91641093491658 2.4981272031908 2.6713622209008 1.9824642518285 1.4837620838389 1.262178664767 1.8826994931847 2.5053603223037 1.650424070821 1.7956191125962 1.8662463173358 2.4507499175778 1.8441825974634 1.8975868310557 2.028489583863 1.706766513188 2.1659938422817 1.9349894077747 2.0924683042836 2.0260709615693 2.0656490112035 1.8619504666046 1.6170172249785 1.9968413453628 2.2846132815837 1.611184114832 2.4654892037259 2.5946101571525 2.450949556982 1.9110825287976 2.3107113352176 1.6597608954353 1.5931728056929 1.7255378050461 1.6595832556292 1.8833594267564 2.1335782862613 2.1721127674992 2.8691450463762 1.7408250165124 1.7294910220045 1.5872113876104 1.6613801235573 2.3931035616164 1.9807220950503 1.7951364041111 1.9874056346722 1.7669857672758 1.4294638807608 1.4046293220484 1.9987641388616 1.6229819853866 1.5372690071952 1.6120534112841 1.8625497506672 2.2546459723703 1.3058269742988 1.9062625185682 1.191550491098 1.4470040667123 1.6077350808167 1.9666090611544 1.7149636966707 2.2412507945692 2.0724925265496 2.0526225321409 2.1455796584101 1.7357173187928 1.9092969562173 1.8919093310218 1.752597725357 1.8882053842411 1.975045646437 1.5494964580271 2.050864001043 1.8074407795751 1.7091615287937 1.8480214959744 1.9025625671027 1.9011154371725 1.2104569300133 2.0367259730602 1.7117994384466 1.802967781208 1.506676002716 1.8341512827165 1.5527742700436 1.514924827144 1.705254469819 1.7425230146688 1.5495427092534 1.7463972264949 1.6343264931309 1.3771071356161 1.5094091335306 1.5896118290754 1.2457120982873 1.7388917743024 1.3452663424222 1.7654444308643 1.5747095452827 1.6259022113116 1.3174195546293 1.401942958364 0.96467424852392 1.2324443351712 1.4235434640573 1.3405820677526 1.2433088252684 1.5500685491913 1.4501709948517 1.6212632761592 1.1543864642331 1.7795633875557 1.9463197014138 2.0830684238992 1.7241768450049 1.4977154409499 1.5592167560485 1.655597059692 1.4917287767029 1.3868705306553 1.9234585196805 1.0024885745558 1.5389158177498 1.610707836499 1.8244016072308 1.7328222242113 1.6182277525833 1.5094100106295 1.482181439921 1.2697010509224 1.1502832764849 1.3163700821776 1.5125598572632 1.3853063899856 1.5187157020253 1.176386248586 1.8237299250845 1.4634717891469 1.746112583819 1.8174393252793 1.3792563960911 1.3646859293935 1.6518433203945 1.6594818808605 1.3393145094691 1.4698464157109 1.3885290348966 1.5234434454138 1.3313877960697 0.81419896192809 1.2852936622509 1.5855951202037 1.3078783954009 1.0856588059826 1.5153745884546 1.3683106642055 1.3037217575999 1.1970293469018 1.5181866827712 1.1018209057702 1.2475026133251 1.2740736269584 1.2732996247308 1.0870077755478 1.1992428550801 0.74553530897901 0.9490124496956 1.0869104060159 0.94484992070532 1.3091845872453 1.382174475755 1.2771073850751 1.0296941996556 0.79622231028774 1.0961410919392 1.1336497627659 1.6578935174181 1.2807134470614 1.1418774419643 1.0224471239033 1.2100128039343 1.0531408692827 1.274875155965 0.49120289616735 1.1548124619631 1.543559439191 0.95545728965229 1.1459490974827 0.76914131385761 0.833476795191 1.0567828342987 1.281769047077 0.93315551119946 0.97706072338611 0.97602631709593 0.67956492201351 0.96468798105663 0.5116608003245 0.43968581144778 0.49710483888704 0.64618036730723 0.82640289508909 0.87466121239448 0.8652580286821 0.76295242836955 0.81108461758789 0.89325190241561 0.89677216852449 0.42149685007282 0.77085526736895 0.95961527822879 1.6524037186039 1.7083296882409 1.2139759136954 1.4023275188335 1.1316719737417 1.2481875976997 1.2095504188904 0.70365226021055 0.80867563031736 0.66415062651197 0.67729127495227 0.68947644579591 0.79562421198173 1.075739667137 0.70368642928103 0.6419605005395 0.76674051190647 0.86191939621847 0.57497067418525 0.55025359178251 0.79105258100686 1.4433903594165 0.80754851035909 1.426044829439 1.1996328812552 1.4797435093244 1.57088204603 1.4452579073277 1.4031141871012 1.2057999967665 1.3218298537846 1.3219272223954 0.86034354816462 0.70977781598976 0.52654811087467 0.44042352744504 0.43227677816904 0.91202190008568 1.1641582509414 1.1007283584746 1.4124734274259 0.82710473206502 0.91669915072462 1.0143768237261 1.3502678002332 1.0559580727672 1.3011203229726 1.1501320644465 0.96563730311122 0.82320029787756 0.74022585395882 0.562939754088 0.78798172689672 0.45794526879173 1.0926392430899 1.1016473813204 1.5070673436424 1.2089080200263 1.3132744978456 1.2934249632265 1.5523523526509 1.0998359645012 1.030679241306 0.65349159303245 0.99281349602803 0.92741420194616 0.99655776582078 0.96598405462286 1.1382760666309 0.53352914444066 0.64110588266509 0.7211543412644 0.58172021077386 0.83676813910697 0.49915991320837 0.59126725366567 0.86482948181795 0.95787232706823 1.1021376598388 0.71026915972011 1.2151945761417 0.7906663062471 1.4006974662141 1.0364321953577 0.80429553609402 1.1778095427337 0.9736912432461 1.1274889981245 1.0747004654889 0.4999365655231 0.4069644072298 1.0652747345121 0.71927625501081 0.78464155755531 0.66781113179269 0.70876508678706 1.1723597029236 0.5502372635512 0.70568976460885 0.88844310842837 0.76045191421653 1.0247564184946 0.94778260959223 0.6335635085081 0.5218690192861 1.1690208168047 1.0931733916582 1.2426836183644 0.92717103398757 0.98134510944411 1.0789476141456 1.0003342209948 0.82279090985191 0.89814114080813 1.0101597245725 0.61742900212152 0.43795294497081 0.8705801416736 0.56093758232828 0.82661810794489 0.83709879482267 0.38479135669546 0.49911846930944 0.54701866525145 0.62096497262472 0.9087713801499 1.0150462516534 0.81774478263604 0.50393626444382 0.92084077359717 0.48986546032383 0.483577023171 1.1014722574539 0.57782430426039 1.411661982328 1.2341100899534 0.78132558292978 0.83447081785453 0.5591185418417 1.2049889970395 0.67820821365753 0.61748231503516 1.7207453203454 1.3763455930707 0.65938089811115 0.81366446114332 0.75077021221275 0.54835659493655 0.50354736980678 0.55053406469653 0.45844968641618 0.6004331188704 0.45446617287245 0.51999123965621 0.57924276622903 0.78015597127195 0.64692693469825 0.5782816912685 0.45742435829699 0.71069604463072 0.49940038578541 1.6956641963326 1.357411505321 1.1953539082585 1.0774395589271 0.52062993015234 0.57411207638097 0.65707997994656 0.49033935587438 0.47709264313799 0.63446916489224 1.0094799497128 0.7769105400637 0.73996760941005 0.61884696727974 0.46094604593809 1.204224834164 0.88126761993512 0.61421440065173 0.47642590899848 0.66211980530512 0.52005514723929 0.55038012613013 0.46593835100851 0.48967426576014 0.63222670101227 0.78445490760746 1.1874739755675 0.6930904873375 0.64117168491072 0.737897721556 0.84300375950278 0.76995107607623 0.45978366035559 0.69822829567029 0.84561720149972 0.91031934051091 0.95203630059805 1.0229731428684 0.96443156851778 0.86089056498017 0.7972840504184 0.92184201094558 0.6768400898957 0.71254113325021 0.64632646168193 0.90344862417499 0.50078382966234 1.1640105273401 0.85649379412848 1.3237254257629 1.1743777727008 0.77259969719259 0.7297232984201 0.76817501063547 0.59833325824869 0.69417084401369 0.46170777112861 0.93319578366481 0.69341213647633 0.79373619858631 0.92905837077229 0.83894641558654 1.182172685507 0.71083833915458 0.75119071167244 0.8363848628743 0.80947822842291 0.69291352997106 0.52041920951688 0.587155301811 0.95533608026652 0.74669729082961 0.99876224972636 1.0897167714981 1.0848568055697 1.5031047892702 0.46076193014819 0.61038036788877 0.95963951096901 1.1052086362598 1.6007876211891 1.4646422802652 0.87843110629298 0.76197396263594 1.7987632661009 1.6241060512774 1.3515525697701 1.5055118290498 1.3139095377685 0.74695776400631 1.5797030820128 1.3235187569442 1.1836107251802 1.2706042518171 1.1224502969323 0.86193656699323 0.94214091001476 1.1028328189367 0.93344841643246 0.93880725365989 0.86379084409141 1.2432374390962 1.5086616866735 2.0632932191549 1.7597914006994 1.4844135070245 1.2543325317872 1.1359053818578 0.74145564705166 1.2426505071552 1.0385442646605 1.3270595039219 1.0326723680953 1.0272064020213 0.87031468489779 1.1911580814207 0.82811665693595 0.78837450189843 1.1230484642853 2.0192068184633 1.8879340450223 2.0094940078637 1.6291785775866 1.08498495798 1.3364092541304 1.4798432285329 1.4057193016708 1.351536657802 1.3047445128466 1.3127793964787 1.4534319205171 1.1743657843197 0.97316284299305 1.8664775243823 1.6744775785139 0.72031780917309 0.42632821764103 0.58541185805926 0.49344749524917 1.2481796375823 1.4882840471176 0.54147632564704 0.46255599889322 0.5492342444305