# vtk DataFile Version 3.0
d-2__ created by libgimli-v1.5.0-1-g5991b6ac
ASCII
DATASET UNSTRUCTURED_GRID
POINTS 803 double
8.3333333333333	0	0
8.5	-0.29429712828708	0
8.6666666666667	0	0
21.166666666667	-0.35154628884587	0
21.333333333333	0	0
21	0	0
-0.13949540192174	-0.65832226163824	0
0.26765699968102	-1.1941152153012	0
0.50098922076846	-0.451860121227	0
11.833333333333	-0.28867513459481	0
11.666666666667	-0.84084908820295	0
12	-0.57735026571174	0
-1	0	0
-0.82347194173878	-1.6006755924119	0
21.666666666667	0	0
21.5	-0.55217395360815	0
1.1666666666667	-0.35154628884586	0
1.3333333333333	0	0
1	0	0
1.5	-0.55217395360814	0
23.61842901153	-0.60378553647188	0
24.166666666667	-0.55217395360814	0
23.833333333333	-0.35154628884586	0
1.6666666666667	0	0
8.1666666666667	-0.35154628884586	0
1.8333333333333	-0.35154628884586	0
2	0	0
4.8333333333333	-0.35154628884586	0
5.1666666666667	-0.55217395360814	0
5	0	0
2.6666666666667	0	0
2.3333333333333	0	0
2.5	-0.35154628884586	0
2.1666666666667	-0.29429712828708	0
8.4079889429861	-0.75760412093209	0
9.0144333430414	-1.1439190584088	0
8.8333333333333	-0.55217395360814	0
13	0	0
13.166666666667	-0.29429712828707	0
13.333333333333	0	0
3.1666666666667	-0.35154628884586	0
3.5	-0.55217395360814	0
3.3333333333333	0	0
16	0	0
16.166666666667	-0.29429712828708	0
16.333333333333	0	0
3.6666666666667	0	0
3.8333333333333	-0.29429712828707	0
4	0	0
4.3333333333333	0	0
4.1666666666667	-0.35154628884586	0
27	0	0
26.833333333333	-0.35154628884586	0
27.166666666667	-0.55217395360814	0
3	0	0
16.5	-0.35154628884586	0
16.666666666667	0	0
2.8333333333333	-0.55217395360814	0
13.5	-0.35154628884586	0
13.666666666667	0	0
4.5	-0.55217395360814	0
4.6666666666667	0	0
3.9253443903472	-0.75760412093208	0
29.833333333333	-0.29429712828707	0
30.166666666667	-0.35154628884587	0
30	0	0
35.905165514021	-0.87509566217462	0
36.166666666667	-0.35154628884586	0
35.661339523067	-0.61041034021497	0
5.5	-0.29429712828708	0
5.8333333333333	-0.35154628884586	0
5.6666666666667	0	0
5.3333333333333	0	0
27.333333333333	0	0
27.5	-0.35154628884586	0
35.833333333333	-0.29429712828708	0
6.1666666666667	-0.55217395360814	0
6.3333333333333	0	0
6	0	0
37	0	0
37.166666666667	-0.35154628884586	0
37.333333333333	0	0
10.741322276319	-0.75760412093209	0
11.175685896383	-1.113902458684	0
11.166666666667	-0.55217395360814	0
6.5	-0.35154628884586	0
30.795730030397	-1.0103532830333	0
31.229185900173	-0.87228466782526	0
31.000045632922	-0.57199295442671	0
31.666666666667	0	0
31.833333333333	-0.55217395360814	0
32	0	0
40	0	0
40.166666666667	-0.35154628884586	0
40.333333333333	0	0
6.8333333333333	-0.29429712828708	0
7.1666666666667	-0.28872883340808	0
7	0	0
7.2211097499487	-1.0538354750778	0
7.0053271435993	-0.61041034021496	0
6.7615011526461	-0.87509566217461	0
9.5	-0.29429712828707	0
9.3333333333333	0	0
9.1666666666667	-0.28872883340808	0
7.3333333333333	0	0
39.666666666667	0	0
39.833333333333	-0.29429712828708	0
13.674580112811	-1.7184248716052	0
14.353791495618	-2.0265268011931	0
13.958469529133	-1.3940906823913	0
7.6666666666667	0	0
7.8333333333333	-0.55217395360814	0
8	0	0
12.994672856401	-0.61041034021496	0
5.5920110570139	-0.75760412093209	0
5.8348685364776	-1.5356869134354	0
9.8333333333333	-0.35154628884586	0
9.5718321806872	-0.87509566217461	0
10.166666666667	-0.55217395360814	0
7.33337923226	-0.57364431858631	0
10.36828810089	-1.6552861219901	0
6.6666666666667	0	0
36.666666666667	0	0
36.833333333333	-0.29429712828708	0
37.5	-0.55217395360814	0
24.333333333333	0	0
24	0	0
12.503171480364	-0.86507900392268	0
12.328351644367	-1.416191408927	0
12.778890250051	-1.0538354750778	0
11.5	-0.28867513459481	0
19.666666666667	0	0
19.833333333333	-0.35154628884586	0
20	0	0
9.6666666666667	0	0
20.5	-0.28872883340808	0
20.666666666667	0	0
20.333333333333	0	0
20.905165514021	-0.87509566217461	0
10.5	-0.35154628884586	0
10.333333333333	0	0
9.3280061897341	-0.61041034021496	0
10.833333333333	-0.29429712828707	0
10.666666666667	0	0
22.833333333333	-0.55217395360814	0
22.5	-0.72876886968591	0
22.915493514149	-1.1101467813362	0
5.2020787936337	-1.0219070688786	0
18.833333333333	-0.29429712828707	0
18.925344390347	-0.75760412093207	0
19.166666666667	-0.35154628884587	0
22.666666666667	0	0
22.5	-0.35154628884586	0
13.833333333333	-0.55217395360814	0
14	0	0
16.833333333333	-0.55217395360814	0
0	0	0
14.166666666667	-0.35154628884586	0
14.333333333333	0	0
14.5	-0.55217395360814	0
14.833333333333	-0.35154628884586	0
14.666666666667	0	0
15	0	0
15.166666666667	-0.55217395360814	0
15.333333333333	0	0
2.0948344859795	-0.87509566217461	0
2.2850956781966	-0.60378553647187	0
12	0	0
11.666666666667	0	0
22.166666666667	-0.95506458788032	0
22.166666666667	-0.55217395360814	0
21.833333333333	-0.7287688696859	0
15.5	-0.35154628884586	0
15.666666666667	0	0
17	0	0
20.833333333333	-0.29429712828707	0
20.661339523067	-0.61041034021495	0
9	0	0
14.166666666667	-0.72876886968591	0
17.333333333333	0	0
17.166666666667	-0.35154628884586	0
18	0	0
17.666666666667	0	0
17.833333333333	-0.55217395360814	0
17.5	-0.29429712828708	0
16.258677723681	-0.75760412093209	0
12.833333333333	-0.28872883340808	0
18.166666666667	-0.35154628884586	0
18.333333333333	0	0
17.407988942986	-0.7576041209321	0
19	0	0
19.333333333333	0	0
18.666666666667	0	0
12.166666666667	-0.28867513459481	0
12.333333333333	0	0
15.833333333333	-0.55217395360814	0
20.166666666667	-0.55217395360814	0
19.5	-0.55217395360815	0
7.5	-0.28867513958836	0
23.5	-0.29429712828708	0
21.833333333333	-0.35154628884586	0
22	0	0
26.592011057014	-0.7576041209321	0
22.333333333333	0	0
23.934922518609	-1.0280995368212	0
25.166666666667	-0.35154628884587	0
25.5	-0.55217395360815	0
25.333333333333	0	0
23.166666666667	-0.35154628884586	0
23	0	0
26.666666666667	0	0
26.5	-0.29429712828708	0
23.666666666667	0	0
23.333333333333	0	0
26.166666666667	-0.55217395360814	0
26.333333333333	0	0
26	0	0
24.761501152646	-0.87509566217461	0
24.951762344863	-0.60378553647187	0
24.5	-0.35154628884586	0
33.5	-0.35154628884586	0
33.238498847354	-0.8750956621746	0
33.833333333333	-0.55217395360815	0
24.666666666667	0	0
28.166666666667	-0.35154628884587	0
28.5	-0.55217395360815	0
28.333333333333	0	0
25	0	0
24.833333333333	-0.29429712828707	0
27.761501152646	-0.87509566217461	0
27.951762344863	-0.60378553647187	0
29.333333333333	0	0
29	0	0
29.166666666667	-0.55217395360814	0
25.833333333333	-0.35154628884586	0
29.947484315848	-0.62869436758688	0
30.409983486194	-0.76921735210505	0
34.166666666667	-0.72876886968591	0
34.166666666667	-0.35154628884586	0
25.666666666667	0	0
35.445556916718	-1.0538354750779	0
35.333287434407	-0.57364431858632	0
29.666666666667	0	0
29.5	-0.28872883340808	0
26.834868536478	-1.5356869134355	0
30.833333333333	-0.28872883340808	0
30.671365010853	-0.57276869068256	0
27.666666666667	0	0
38.204670056311	-1.4270134762662	0
38.601589185276	-1.0280995368212	0
38.094834485979	-0.87509566217463	0
28	0	0
27.833333333333	-0.29429712828707	0
36.662074300781	-0.56642454030296	0
28.666666666667	0	0
31.746636025369	-1.1187108767801	0
28.833333333333	-0.35154628884586	0
33	0	0
33.166666666667	-0.29429712828707	0
33.333333333333	0	0
34.5	-0.55217395360814	0
34.731644951192	-0.92970615345739	0
35.666666666667	0	0
35.5	-0.28872883340809	0
30.333333333333	0	0
31	0	0
31.166666666667	-0.28867513958836	0
31.333333333333	0	0
38.285095678197	-0.60378553647188	0
37.833333333333	-0.35154628884586	0
30.666666666667	0	0
30.5	-0.29429712828708	0
36.5	-0.28872883340808	0
33.666666666667	0	0
36.41952417611	-0.77749898599357	0
38.5	-0.35154628884586	0
38.833333333333	-0.55217395360815	0
38.666666666667	0	0
29.657657699283	-0.83081436360664	0
40.168201869811	-1.5356869134355	0
40.5	-0.55217395360814	0
39.925344390347	-0.75760412093211	0
32.994672856401	-0.61041034021495	0
31.5	-0.35154628884586	0
43	0	0
42.666666666667	0	0
42.833333333333	-0.29429712828707	0
43.404176293252	-0.42323554094762	0
35.88498281448	-1.5034830799843	0
41.166666666667	-0.29429712828708	0
41.074655609653	-0.75760412093211	0
41.5	-0.55217395360814	0
41	0	0
41.333333333333	0	0
34.333333333333	0	0
32.166666666667	-0.35154628884586	0
32.333333333333	0	0
39.5	-0.55217395360814	0
39.333333333333	0	0
36.500673817427	-1.6307728168531	0
40.833333333333	-0.35154628884586	0
34.666666666667	0	0
35.333333333333	0	0
35.166666666667	-0.28867513958836	0
35	0	0
36.333333333333	0	0
36	0	0
12.333333329009	-0.57732068917697	0
37.666666666667	0	0
7.9035368819631	-1.2622568520387	0
28.737635378193	-1.2311528923644	0
29.212976838479	-1.0424777721347	0
28.833333333333	-0.7287688696859	0
12.66662076774	-0.57364431858631	0
38.166666666667	-0.29429712828707	0
38.333333333333	0	0
12.5	-0.28867513958836	0
39	0	0
39.166666666667	-0.35154628884586	0
20.347766676375	-1.1439190584087	0
19.833333333333	-0.7287688696859	0
40.666666666667	0	0
42.5	-0.35154628884586	0
10	0	0
18.5	-0.55217395360815	0
41.666666666667	0	0
23.428167819313	-0.87509566217462	0
42	0	0
42.166666666667	-0.29429712828707	0
42.333333333333	0	0
42.744785246826	-0.77776727251482	0
41.833333333333	-0.35154628884586	0
38	0	0
41.542494325991	-1.1832128457714	0
2.6015891852757	-1.0280995368212	0
13.258353909981	-1.6064355191183	0
4.8333333333333	-0.72876886968591	0
15.5	-0.7287688696859	0
15.8687454603	-1.0219070688786	0
16.501535203144	-1.5356869134354	0
14.833333333333	-0.72876886968591	0
12.666666666667	0	0
17.797921206366	-1.0219070688786	0
18.166666666667	-0.7287688696859	0
36.905165514021	-0.87509566217463	0
32.666666666667	0	0
32.5	-0.55217395360814	0
34.833333333333	-0.28867513459481	0
34.999999995676	-0.57732068917696	0
34	0	0
35.169838147031	-0.8650790039227	0
42.285095678197	-0.60378553647188	0
41.877780449001	-0.80261564071807	0
13.238498847354	-0.87509566217461	0
11.333333333333	0	0
11.697267761921	-1.4738194081615	0
12.166692603518	-0.86967323340335	0
3.1666666666667	-0.72876886968591	0
11	0	0
18.535412126967	-1.0219070688787	0
25.833333333333	-0.7287688696859	0
25.268255851942	-1.0280995368211	0
28.268255851942	-1.0280995368211	0
[...]
CELL_DATA 1424
SCALARS Coverage double 1
LOOKUP_TABLE default
2.8813511396815 3.1148381294131 2.0323213344256 2.6210153608758 1.8269807969233 2.9918328767328 2.7990335313759 2.3273106901235 2.7672020810494 2.596149656796 2.8370175045496 2.4395085903369 2.8261395615428 2.654975684997 2.6726296197933 2.5974637037592 2.4782662022005 3.1943428114155 2.643859785562 3.196575275574 3.2594581039595 3.229359191255 2.9368458215686 2.953523989266 2.9616437478651 2.9316645143467 2.9569936645376 2.8604425023428 2.5257015683638 2.9406004557036 2.9714554719294 2.6443506820266 2.7689960131274 2.9430981823179 2.9338075314888 2.7487588450693 2.9824381972839 3.2860346494333 2.4950637423146 2.7590851769862 2.643163293872 3.0088102652248 3.1598820782381 3.2357237625592 2.8177166900051 2.4431250956157 2.8740366361998 3.238295708634 3.2469808900114 2.099209300054 2.9776240064257 3.0522253439012 2.7117254452555 2.3440247603913 2.8041358798742 2.6262419347463 2.4930853671664 2.4128183096305 2.8750461375414 2.940589424696 3.3035581260749 2.8778439566714 3.1344722975096 2.349955718368 2.6321708280103 3.0947754497081 2.986990647836 2.9230882092848 2.6786265494189 2.8074632918511 2.9272668510597 2.731781952755 2.8438658044084 2.6020260032969 2.3998800467223 2.7397135286349 2.8716740280655 2.7891486426367 2.4517354947739 3.0480195606624 2.8108550402464 2.5575633338436 2.7443350921774 3.0753657291487 2.5927981556664 2.7970212503897 3.0234514705369 2.864608894488 2.8610061579349 2.3228032906573 2.8002819202621 2.4252555780357 3.0572490806255 2.6288937154214 2.5109129408917 2.9524628474295 2.3476445656249 3.0561557593296 2.7574538714028 3.0044134973005 2.656233247518 3.0719644583906 2.6815953829741 3.0141794185588 2.8557207072569 2.7125420260591 2.8177314500107 2.7494173804696 2.8283294098377 3.0430823056714 2.6655108143432 3.2173988893832 3.2603000655227 3.0654142199966 2.6649489512719 2.8750704524547 3.1330619202796 2.8305560469472 3.1501124335236 2.8847991676314 2.7746759461315 2.898438820943 2.9527860586939 2.8185671814073 2.7508672394783 3.0641556711346 2.7738014045035 2.7888424716001 2.9076512218849 2.8268481371563 3.3004277080155 2.7592302261446 3.0498779200268 3.2481330672644 2.6398220027695 2.9421715131729 2.8864547282797 2.9740157534268 3.1887863462584 2.93417059037 3.1657555989776 3.1097305321462 2.7288601704003 2.7298584093174 3.0849184021109 2.9580552055615 3.3713107062799 2.9820787331519 2.7484977051306 3.1902061613892 2.8793591967683 2.7646074268358 3.0256525944596 3.2086142208043 2.783544125564 3.1920288321416 2.5804576624999 3.0641800048955 3.0002848927572 2.8835223418749 2.5627407226772 2.8171850809656 3.1059791539638 2.2925069256344 3.362406509498 2.9895119104175 2.7525737262265 3.0857576142081 2.6181520999288 2.8983117643173 3.2311447358933 3.1848150058356 2.9129453544955 3.1960195855136 2.6596782907681 2.9223748467265 2.6656348389613 3.1972349057993 3.2155122919655 3.3594762527851 2.6018346461052 3.0980905837984 2.9667731182194 3.1024089034404 2.9719609101609 2.878113534985 2.7315728014584 2.7588806672645 2.7653327399679 2.395994731855 2.8063133918565 2.7657071625189 2.919513293505 2.9172341032977 3.0915905543267 2.2363280793389 2.4132103242759 2.8227668312771 2.4730920366953 2.9770004720719 2.9473995850213 2.8158163454075 3.1794592963172 2.9065788226586 2.2893368391659 2.5209043015951 2.6362524742772 3.0677381158734 2.7260318367239 2.9732563942374 3.1991794698296 2.9542826996117 2.6738002834904 3.119971819018 2.6841471033969 2.9737174141723 2.8247121586284 2.7069271516329 2.7582931162294 2.433119863068 2.8724354389295 2.5797476345822 2.5397268033271 2.6673892268939 2.494668558751 2.8320981310577 2.8669309227656 3.0548918729922 2.8746571834465 2.7707778854735 3.047158518966 3.1022860303364 2.5557190052195 2.8730346980746 2.541920313503 2.9030087963168 2.7345460472259 3.2016028325087 2.9410466525468 2.9567542770756 2.8833705335573 2.6721400993424 2.7044214539339 2.8780025437554 2.693111960521 2.9634566420729 2.8902745542881 2.2305637908413 2.7364263662175 2.7509408602365 2.9841176840339 2.5849736636096 2.7391316920252 2.6599975520939 2.7917105881722 3.0863550503765 2.6855652179732 2.8644189360465 2.3076328382046 2.4546481857551 3.1526101284127 2.3163815675555 2.6268632908414 2.7990517030142 2.5759164909228 2.8147730072833 2.5466189313066 2.6081356917301 2.7383829054166 2.2455278693895 2.5634318468752 2.6712568015048 2.5478406236824 2.5588684978266 2.4662987977626 2.6689626742929 2.7893523114411 2.8081197638616 2.6556469266776 2.6536796974486 2.7998659592623 3.1954448967786 2.8968474415392 2.5353748263899 2.6819185411649 2.6663881028471 2.7988544028017 2.7095112292488 2.8095400052968 2.8360402781954 2.6859624932299 2.8048045329467 2.8198664564886 3.3843498146968 2.864783418351 2.935253319617 2.7796108533921 2.8228819189336 2.8439304804692 3.370096686802 2.876237568516 3.0418240580489 2.7799274164926 2.5787531058362 2.9702581632192 2.7898365751509 2.8247628239686 3.3583934733441 2.966261870997 2.9761584503932 2.9507994020397 3.3251576232753 2.6949414339071 2.796458408134 2.6101653553856 2.3772261722683 2.9132287767802 2.6104306158138 2.6676366523354 3.086966791134 2.7039982797802 3.0321651894985 2.8346190259487 2.9864607670954 2.3654222977636 2.4014741142079 2.5865953644146 2.5574078567354 2.6432818579935 2.7632954874352 2.5758157776504 2.4978544236634 2.629736709038 2.8458632675392 2.8033005785676 2.9149623897034 2.3618708785006 2.2386840215025 2.8893573899218 3.2358663417622 2.9762270948711 2.8268970114739 2.6638629485108 2.6917169566954 2.6315121353515 2.8107623170664 2.6986637798838 2.8829997296111 2.7153001695965 2.6980674812186 2.9424174517756 2.5373271500161 2.2902168458949 2.5870890281832 2.5060829195198 2.3446659252698 2.7241701313497 2.7125390708235 2.4097889239701 2.9559684955547 2.6425145187242 2.4940946212028 2.5482265967152 2.6826109908651 2.5779882588513 2.6614930480218 2.3911897481766 2.9123706088463 2.790734990296 3.0199002580656 2.7298757795963 2.6667712821154 2.6964571300354 2.9430702145655 2.8078070368108 3.0319910196679 2.7622571811176 2.9497974544251 2.9238788081367 2.6809812862662 2.7648842516681 3.035777859314 3.206255186007 3.1460328490225 2.607289325643 2.787006800649 2.8256166040596 2.9020590049775 2.5590137947781 2.7658489498991 2.9079223374556 2.7099847489678 2.6095917456709 2.8243708030111 2.6389273616198 3.3726411105025 2.4813950912429 2.5067854820094 2.3741814448704 2.6021178102444 2.268151698178 2.46146567736 2.3072146798525 2.3663428603143 2.5799133083314 2.3333488190363 2.3076748521064 2.8827365169341 2.4721085876429 2.5508623047635 2.6213885090825 2.7061785750119 2.5626376248916 2.6823853015084 2.5208750784215 2.7459829776926 2.6817905150956 2.2796309730618 2.5265338969721 2.5487475153792 2.379675596792 1.9705743594285 2.5339507233278 2.6018301674354 2.7914807180371 2.6411325215987 2.8004365075067 2.6596883909059 2.1885878676288 2.7803939829389 2.6062347280309 2.7487196798698 2.5554788991524 2.8701777140244 2.5752601443034 2.9170730969425 2.5908925298411 2.256822627564 2.2619295373674 2.7425125025358 2.7365801794381 2.8127418031124 2.5795128140767 2.4237574308843 2.2253884620538 2.8332279573466 2.6248533497378 2.8529367933147 2.6411299945974 2.707043535781 2.4482069157956 2.4482509008207 1.8943395200055 2.5682195126281 2.4043282892324 2.0515062153621 2.1865149124185 2.4049794697736 2.4631661595328 2.4884662509026 2.5367809649433 2.9145436002611 2.4466208664691 2.2337028894274 1.9096563154651 2.1726421849867 2.6302877652387 2.3798751757596 2.4262917165289 2.0389672054494 2.6916184855519 1.792935645421 2.7479478394334 2.5217688345475 2.5524498128302 2.4918538352694 2.7825102506186 3.2461566377155 2.3776640287888 3.0740267951496 2.5488323056266 2.5587570376381 2.5647636380479 2.649857101043 2.3787052776276 2.6146089921836 2.5515108645007 2.571229570168 2.21781736661 2.6487223533266 2.4543473985646 2.6795123741843 2.0687590749804 3.0804609227352 2.5519398026627 2.4830820020266 2.2891559144403 2.394223998495 2.528009842581 2.6598982775878 3.0198524067066 1.6934205549118 2.6927160441071 2.6367504944748 2.3370694046831 2.4567413763182 2.0147359695614 2.1318178669143 2.5635997329469 2.2562675125654 1.8380312804501 2.481167257964 2.3441176280953 2.8208377321827 2.0707039319096 2.3024568579998 2.297455515111 2.3754051428501 2.0793624579877 2.085037913259 2.4814702469253 2.6625800922796 2.4851816383655 2.4343351650331 2.2892442016248 2.3299985411995 1.9709158107952 2.4877419535663 2.2004815529747 2.1928401505485 2.5017855981816 2.3833108831098 2.5928486874703 2.3549823922774 2.1303774019226 2.5205665404685 1.8207222058388 2.1576719501416 2.4234338094593 1.620247322864 2.2686675367539 2.2542846339433 2.5643435016409 2.3478166312486 1.7613861945686 2.5742775063335 2.54564117226 2.625858124738 2.6469732614745 2.4793554036156 2.3809979296484 2.4632988711425 2.4411251777501 2.4524297734441 2.0769705082718 1.9619360693455 2.6376691861547 2.5217496266658 2.3124686112521 2.3978616809458 2.3329764472882 2.6966137624446 2.4038136045275 2.2404842875362 2.219687400083 2.2597470386563 2.3710413872538 2.553363572411 2.958673768997 2.6330411818989 1.9958521513675 2.4723436709612 2.8491032152548 1.966320966805 2.3992655417387 2.4033605007985 2.2857272311134 2.2809122684199 2.6537261119988 3.0327013318914 2.3707628186159 2.320524246604 2.3169999927841 2.3731274334444 2.7385511647723 2.4653921205512 2.1470628617113 2.1329500242539 1.6532576434526 2.089603568371 2.1816123839616 1.7700211981261 2.7847951413479 2.6562902562618 2.3205885875356 2.2470412298076 2.7160715691385 2.6175619461343 1.9440965444174 1.3147795540306 2.2487745430136 2.3107850345518 2.1122428063767 2.8235760576788 2.041558871802 1.9962537092499 2.5386547090317 2.7439548745919 2.4135671240768 2.2898714613997 2.3932668230717 2.3320521121855 2.1290141570788 2.4601015664086 2.1445850581952 2.3412926558163 2.485515730693 3.2071509204451 2.1383125774298 1.9572860967008 1.9235054357939 2.1645913354673 2.0677502961739 1.9090661898472 2.1658581857692 2.2196391565233 2.2931385430764 2.0205361780652 1.9593633861553 2.5252054578047 2.411735274123 2.5973112153069 2.2917934719291 1.7976236980208 2.3794951878751 1.6843436733724 1.5558748211006 1.8449595948139 2.3249393842807 2.7056718810112 1.9626397357561 2.7254404998171 2.1016652499422 2.1636484639831 1.9520724865556 2.2710485870221 1.9535266352949 2.5307335491351 1.8837844591618 2.2320174202064 2.0527131634287 1.6227973899962 2.0749776957034 2.1290360334294 2.2423467349573 2.1967910872688 2.2686354299179 2.0392414957939 2.3619103257219 2.7775236256586 2.0007604177889 2.2777789324797 2.1989189972756 2.1668356909305 2.332633819942 2.0842967566604 2.0816761645109 2.6626237999752 2.4307967220067 2.1326274045237 2.8689431606084 1.5613474148115 2.0076748585853 2.6847383630657 2.0535272264542 2.2837414893635 1.2887209623714 2.0235348455632 2.7720794449784 2.1528397237648 1.8355562066239 1.8838454089887 2.2667912706044 2.1200700915948 1.857907566162 2.1416559353311 1.9372527759955 2.0884450299376 1.9328916483436 2.3079398169566 2.0225380961591 1.9053170817538 2.121615913653 2.0526341616256 2.1205157837617 1.9856838098054 2.003020319736 2.9067631527186 1.992036846301 2.099160082912 2.2977501063042 2.1353442078583 1.9733591144059 2.2056585434974 1.7047151040147 1.9076633135433 1.7823963877696 1.8597919860347 2.0275725363293 2.7258660707087 2.2956978662254 1.9362731016318 1.6936372826682 2.3630887460306 2.0516688524358 1.3653125032167 1.8138871292733 0.58478010122616 0.74792000018342 1.9679613716469 1.9099283352434 1.8052320628332 1.3647622661204 2.1226887019392 0.86186960742122 2.5340231243214 2.6804126678373 1.9163643487869 1.4131232164021 1.2075267882065 1.7941828449448 2.5184946330224 1.6331041324478 1.8165089581602 1.8055572241583 2.4177882965411 1.7608377899727 1.8294376292697 1.9596570319042 1.6431766469353 2.1055549703948 1.9014674041309 2.0567986355401 2.0189806721821 2.0760203576156 1.868836329527 1.6258456425621 1.9924635823312 2.2682471260064 1.5284230436197 2.465713022523 2.6141881288375 2.476767422583 1.8304247431665 2.2942162152581 1.6263244584205 1.6411204999696 1.6985096153392 1.6855934610361 1.9204524124122 2.0650916174967 2.103107753179 2.9218005095359 1.7139310698595 1.6426979968482 1.5052301724831 1.5704590120912 2.3678448771322 1.9152499643393 1.7329084234703 1.9192501693383 1.6809888867722 1.3524592899762 1.3402240278746 1.9071096442087 1.5362720855073 1.4660222923569 1.5370329778762 1.7883443742134 2.1982943302268 1.2399224711146 1.8356748179558 1.2054336620113 1.4795142637259 1.6131046672598 1.9756591793482 1.7376980591795 2.1915370571331 1.9949882404194 1.9708002105573 2.0695902729941 1.6448309088769 1.8224238336816 1.8454335645803 1.7168221613951 1.7971547317527 1.9013653889577 1.4850837367705 1.9815346748777 1.7162084878047 1.6199228912125 1.7540620255485 1.8125202993257 1.8291057173475 1.1522447312144 1.9594851629029 1.6251359830169 1.7426077401548 1.5084036564341 1.7447467212924 1.4698776576708 1.4309620412807 1.6167556653226 1.6518889685982 1.4644586361662 1.6761834349088 1.5776928121054 1.3493098886614 1.4809050093444 1.504232227449 1.1740661871884 1.651361102388 1.2678828764686 1.6808482417238 1.5210258011946 1.5465554691954 1.2781072841874 1.3543954012186 0.93682559941248 1.2248507142196 1.4432774611065 1.2623627562575 1.1724095981453 1.4640863871276 1.3671609904854 1.5321320851718 1.0884103548528 1.6942400074415 1.87141565756 2.0210203601633 1.6405580893672 1.4204573590832 1.4755226807455 1.567846846063 1.4095950998188 1.3109794307118 1.8578743445546 0.94659784005711 1.466425340839 1.6514205941635 1.7369043131008 1.6436193236345 1.5360211276858 1.4281118419345 1.4211488894844 1.2045394202218 1.0901737442118 1.259982663064 1.4383739373409 1.3164132667449 1.4615621040348 1.1114984281824 1.735682721816 1.3845948203286 1.6666553391942 1.7355749358395 1.324174121102 1.2971928038494 1.5612597259607 1.5683804073882 1.2689941556607 1.3994161357385 1.319841141314 1.4491560728497 1.323113998077 0.78742699995851 1.2189111432426 1.4988446647932 1.2457975742812 1.0257803157269 1.4322348032059 1.2940147258326 1.2302799280341 1.1321333535817 1.4351533531267 1.0659332132129 1.1838187860026 1.2080213544011 1.206117617561 1.0275337303321 1.1353418819428 0.6986446251477 0.8933305100513 1.0335351150216 0.90208901708724 1.2453360608808 1.3119633916096 1.2129597765348 0.9724615923553 0.74682794533859 1.0461077961918 1.0880254600177 1.5752363002221 1.213916848593 1.0813144083803 0.97381442590503 1.1578465138262 0.99711426720982 1.2115775551379 0.44118231650154 1.0950291886526 1.4710575698326 0.90170045625498 1.0822346082207 0.71364418168988 0.7845605869193 1.0132143578464 1.2325631431253 0.87725469288921 0.91929532063314 0.92001906536186 0.63507501394206 0.90625275481561 0.45985605816132 0.40015402737147 0.45230677606952 0.5923899656356 0.77055542273871 0.83233716613813 0.81104312369216 0.70945663730807 0.7584720243689 0.84311758674679 0.85953526166611 0.41942424209338 0.72934630391471 0.94773788184164 1.6597043678686 1.6225088767582 1.1477969813074 1.3257426582981 1.069642161969 1.1831442994127 1.1472974658308 0.66365127650692 0.77188919679976 0.64085841824873 0.64535752124568 0.64101899111335 0.7680879668097 1.0472946500939 0.65085379241714 0.60810591686215 0.73173752039398 0.83484961124269 0.55484603751601 0.53902988642767 0.78573684917456 1.4603607000535 0.75758191149007 1.4367845157187 1.1336898556193 1.4708887691476 1.4879866617509 1.3659042682388 1.3283468496668 1.138837016715 1.2490970404325 1.2480905854631 0.80427934881653 0.66292326174448 0.48240454381811 0.41226898048439 0.41749494675343 0.86643644783306 1.1614778137075 1.0649057549989 1.3305180504996 0.77259759333635 0.86237540824867 0.95588276014638 1.2791145823393 0.99678648835425 1.231491285488 1.0894249016393 0.91019925264248 0.7712172333667 0.69149522180599 0.53047630476001 0.79053021080985 0.44927779081304 1.0311258955835 1.0396202611179 1.4221742657082 1.1390702516113 1.2405939541718 1.2216636933733 1.4689808430458 1.039174536816 0.96967763056011 0.60781439089943 0.93451298340832 0.87170584652863 0.93829720614819 0.90900951384026 1.083717050607 0.50908785473255 0.64492759357612 0.69802674762743 0.57379616267516 0.78583310727291 0.4573053198623 0.54656217823762 0.8130694271895 0.90246695311903 1.0375281679301 0.6590671555694 1.146078525059 0.73868702890416 1.3218365074772 0.97715533743199 0.74753479876485 1.1272460637835 0.92199222024068 1.0804745007593 1.0174302070698 0.50137984506424 0.41508559668171 1.0706682439155 0.70689814489327 0.73494652934531 0.62219891741615 0.66189883943696 1.1088641540455 0.50642412793984 0.65633989845309 0.83639704470394 0.71404408279577 0.96560531840261 0.89294346504685 0.58635209121787 0.47728017519666 1.1034487144797 1.032339864782 1.1759408372644 0.87387752564957 0.92736851347085 1.0226377523205 0.94503652190669 0.77221707699457 0.84441703245968 0.95285121191734 0.56707219593298 0.43985479225272 0.82030190846414 0.5173239159148 0.77319535656659 0.78290039099379 0.39149676450898 0.5040732162591 0.55310826987019 0.61814770910904 0.85557850947006 0.95965062690502 0.7698373594802 0.46250513970173 0.8685965086058 0.44886722268436 0.44269013186365 1.0426448529578 0.53582929416527 1.3394525260947 1.1690816663404 0.72946565508358 0.78153644140503 0.5100220572572 1.1359184169286 0.63336010207594 0.57352147339889 1.6497324950379 1.3084202363149 0.61193678223982 0.76318029136572 0.70274165130117 0.50272318568035 0.46291461439885 0.50724368746946 0.41828470195403 0.55686814276947 0.41495718997786 0.4780780537342 0.53535978951828 0.72868280366203 0.59852757116223 0.53640538894414 0.417761347481 0.66538306628358 0.45826757493002 1.6201458042354 1.2875918063622 1.1321395159824 1.021402310207 0.47600491277832 0.53193668187713 0.61069813332573 0.44942749983008 0.43068777496091 0.58546649709832 0.94975303374801 0.73032583025838 0.69457593298421 0.57538940811396 0.42252836439829 1.1409385748453 0.82999310686606 0.56784672672461 0.43313647101749 0.61294877680032 0.47681385160249 0.50399186235728 0.42160649524342 0.43989919934573 0.57888030160925 0.7331683618249 1.1214252425702 0.64875407615038 0.5975462007283 0.69116384307306 0.79484014311898 0.72306643685476 0.41914642946163 0.6532132869663 0.79670296493013 0.85821601236834 0.89836818872312 0.96734178796853 0.91125348787212 0.81173496796038 0.74878653811121 0.86947805302848 0.62732470061101 0.6665014530253 0.60209386031465 0.85174965672641 0.45829066855143 1.1037450810495 0.80479483415687 1.2565323750486 1.1146897586986 0.72169623632384 0.681398121433 0.71896951131943 0.55240727334467 0.64289720495608 0.41483245203072 0.87765801380314 0.64216973819422 0.73999686280135 0.87371920218965 0.78439273809033 1.1174050382843 0.66251508608188 0.70211807259656 0.78644994925187 0.76010567574622 0.645787608905 0.47631674091562 0.54448783272263 0.90277003916975 0.6955130474286 0.94003000361249 1.0293915646452 1.0248131327732 1.4176991170992 0.41965940145624 0.56604894950839 0.90167956241795 1.0438415921371 1.5148829181299 1.3841701536878 0.82472049923887 0.70769875070663 1.8030077245675 1.6226292461298 1.3541032401387 1.5346004979378 1.3007657186173 0.74581615630973 1.5905796464618 1.3325388057011 1.1936732368049 1.2911576598397 1.1042337238388 0.86325785237328 0.94836564978007 1.0978072041075 0.92119338096854 0.93747952740167 0.84690652235593 1.2200931738522 1.4920930603866 2.0035497807866 1.6873953748853 1.431752489554 1.2140298569677 1.1190509038157 0.69273867891082 1.1958080737011 0.98506872456978 1.2803810607951 1.0123319156755 0.98184816306389 0.82175638560059 1.1316776424685 0.78451464544117 0.73394475643181 1.0650375247847 1.9373629222493 1.7980717126627 1.9257805001064 1.5447527259377 1.0257191479961 1.2648576164611 1.3952875691856 1.3304235158183 1.2753922337392 1.2328591397855 1.2422492429666 1.3737609897424 1.1401413626611 0.93753574545421 1.7884449576749 1.5920179775496 0.6681590627654 0.37774466934046 0.53931628943511 0.44427650234947 1.2320508099473 1.4735214330402 0.5044277344086