# vtk DataFile Version 3.0
d-3__ created by libgimli-v1.5.0-1-g5991b6ac
ASCII
DATASET UNSTRUCTURED_GRID
POINTS 1483 double
3.3802423101098	12.435481574566	-0.57001420684378
3	12	-0.2857142857143
3.4959596309848	11.998298039034	0
3.2490070092203	12.168560129388	0
6.0395510135596	13.367156253372	-1.2757999763971
6.5930002103947	12.023472734859	-1.2922192071349
5.4998599382803	12.552571297657	-0.59337769664261
5.29662096318	11.932351047571	-1.5392209346082
5.6153020589615	9.1440579133635	-1.0774777831171
5.7237069713611	8.5589744845549	-0.30827017969781
5	9	-0.2857142857143
5.3151026533923	8.4249591108801	-0.38240156963578
2.3178923476779	4.1926464382665	0
2.5373292327812	4.4716333182052	-0.48281884804687
2.3342974478463	4.0018571812202	-0.30572640106363
1.9994701911036	4.4258543307655	0
4.8968211033092	12.507755029533	0
5	12	-0.2857142857143
5.2932790228536	12.494788035524	0
0	0	-0.2857142857143
0.54768630893449	0.55020446432687	-0.60775225926193
-0.16846798780902	-0.24002860812406	-0.65332445545953
-0.28063481777066	0.41453578455018	-0.44890469943706
7.7	3.575	0
7.3102059000399	3.7470939102263	0
7.7	3.6732286664853	-0.53772532608145
7.3176226410905	3.2857280588852	0
-0.7	-0.10798167686939	-0.47517111104905
-0.7	-0.57707899562378	-1.1376990549501
-0.7	-0.61986630133594	-0.43486724047509
6.3962361866998	10.611290418241	-1.3182185489848
6.565939673393	9.5694509864085	-0.57379796778735
7.1295911592009	10.496363016677	-0.48219980545192
6.3839624611364	10.341052129245	-0.35036617584397
7.7	14.3	-2.5
6.7623683783591	12.987112326146	-2.233077027779
7.7	13.059020885286	-3.3539705522597
7.7	13.327367479896	-2.129915020979
1	6	0
1	6	-0.2857142857143
0.93236760237426	6.49128333619	0
1.3454573625665	6.353105459937	0
2	5	-0.2857142857143
2.1684298754346	4.7403793023811	0
3.0226729813355	8.4836106439452	0
2.5164096947204	8.910651700233	-0.41109082170818
3.4071201441719	8.4167381876838	-0.59109415332551
2.5374808587914	8.1383747261781	-0.35604109466584
6.2778911301719	14.3	-0.61136458754231
6.2225356773765	13.691717475418	0
6.5208076177088	13.495118289851	-0.49928801204061
6.7358646795693	14.3	-0.39005656748015
5.7965188279432	13.281940723964	0
5.5320359851605	12.925291312368	0
5.353113789845	13.264183036004	0
5.5919457801018	13.101154188917	-0.33537516396337
7	10	-0.2857142857143
7	10	0
6.5010306427949	10.010760669106	0
6.8196744207924	9.5136576917357	0
7.7	1.1375	0
7.7	1.6430719769933	-0.42557297445049
7.1939383721229	1.4724531054162	0
7.7	1.625	0
6.3572581294301	1.4772201134971	-0.96507376287322
6.5574763981385	0.84898833643366	-0.48332647821142
6.7774291048203	1.7003141153393	-0.4123635555875
6.1433933962903	1.4220674799247	-0.28622251631329
-0.7	9.1984657118068	-1.9278839451739
0.33291529395702	8.3305676904572	-1.2970017952003
-0.7	8.1442617177323	-1.0898260028896
-0.7	7.644268062563	-2.0766032868031
4.508194357046	8.6258793740749	-0.60770874662543
5.0095189690676	8.5009469809039	0
4.7609249278557	8.7686419230913	0
6.2306672701993	2.67753718	0
6.6360398560532	2.4670661479797	-0.44686919005428
6.4910302172834	2.4939022421641	0
6.1550873755842	2.4572757142813	-0.33684154297057
1	1	0
1	1	-0.2857142857143
1.4901571161019	0.99574153349402	0
1.1736530561382	0.72346383359363	0
2	4	-0.2857142857143
2	4	0
1.6440539242474	4.1532454240512	0
7.7	6.9501255673919	-0.74418826283982
7	7	-0.2857142857143
6.7521552376889	6.497772044976	-0.66059363300197
7.7	6.3887218416049	-0.46884913673037
5.9482896260331	7.5800048202495	0
6	8	-0.2857142857143
6.3095291646476	7.6896230263426	0
6.1432247512519	7.3579252770212	-0.41388970597853
3.501272057481	12.437082442362	0
3.3297831413816	12.805427976196	0
3.6823393063421	12.851671876304	0
1.3671388209093	10.633374397873	-0.4152980605108
0.95248763025238	9.835503527633	-1.7808732395437
2.3518021577517	10.495200039554	-0.50930668321109
1.5373497846005	10.021005779616	-0.41781002197689
6.2054585007625	14.3	-1.3884356875417
6.9442913034148	14.3	-0.89278753613404
1	8	-0.2857142857143
0.54167473049383	7.7707286368021	-0.37916050195481
0.44975345341211	8.3808810318019	-0.31136669048163
1.022076618805	8.4121844676845	-0.45670843222423
0.89173681858685	4.6122796653579	0
1	5	-0.2857142857143
1.2386083631299	4.6841794176855	0
1.3923592539172	4.7130963353432	-0.25978315417498
6.4242299347383	5.6840176993625	-0.35514079575845
6	5	-0.2857142857143
6.3424541740313	5.2754910113697	0
6.0447933133998	5.5049876953384	0
5	2	0
5	2	-0.2857142857143
5.5190673049038	1.9208326821789	0
5.2306444928855	1.6547875838902	0
5	13	-0.2857142857143
5.257359886178	13.540476325965	-0.63012071696907
0	6	0
0	6	-0.2857142857143
0.066757795936057	6.5008369551487	0
0.29243888553297	6.1743316976873	0
7	9	-0.2857142857143
6.5033796411008	8.9981073418213	0
6.5607922823332	8.4440251373986	-0.63122800754088
6.811726958696	8.7028726276344	0
7	5	0
7	5	-0.2857142857143
6.4986646723997	4.9192017057136	0
6.7141996182955	5.3303468264748	0
7.7	9.5988491781319	-7.4736716195817
3.1507199964473	10.394874003632	-10
4.8663216648816	7.3792654266676	-10
5.1015502438684	11.553440122249	-6.405163284031
7	7	0
6.9589015254993	7.4884372736447	0
6.761634669635	7.2408783569561	0
6.0574437090791	0.20878539066113	-1.8779478182653
4.9838025543493	-1.3	-2.1179854334408
6.0308685444023	-1.3	-3.5425074203685
6.440522236286	-1.3	-2.0103523001383
3	2	0
3	2	-0.2857142857143
3.0105846506	1.4855923993349	0
2.6480485575569	1.6700894103009	0
5.0527203000088	13.535479310798	-1.5373151531841
5.0246691847863	14.3	-1.036131499603
4.1300067609037	14.3	-1.2024507502556
4.4744197407865	13.547407617085	-0.63586628370479
2.5813517996865	9.6286485974984	-1.0236151505326
2.2955236368793	9.5881134365907	-0.29154811067367
3	10	-0.2857142857143
6.4248505083522	12.522044346884	-0.42559946143008
6.465073985677	12.51782996062	0
6.1644652963082	12.36965297069	0
6.3832046574853	12.135664356038	0
2.9908655166747	12.498069465114	0
1.984703560175	7.5906357794687	-0.50777967523709
1.0508409188237	7.354634772545	-0.95680796450018
1.4515039911109	6.5829264157992	-0.56173008002516
1.3866216751759	7.5118935788728	-0.35488362790971
2.45	14.3	0
2.2168273415577	13.627179222019	0
2.4554693735383	13.497784276817	-0.39727655195048
3.032551925238	13.762466584345	0
6	11	-0.2857142857143
6	11	0
6.4843452951013	10.966514281357	0
6.2440599782187	11.234710090977	0
5.5	-0.5576923076923	0
5.247952850371	-0.29481663567353	0
5.5452342683804	-0.096294524539033	-0.49623355575102
5.1016398375367	-0.61489919294387	-0.38960315167385
2.3232496140345	4.0110297188843	-1.3835068702753
1.6586320571652	5.8268322896535	-1.5213554090482
0.71002746520551	3.976198472286	-1.505315421377
1.3296414347056	4.9089994064226	-0.82629172929831
5.6	14.3	0
4.6510156691765	14.3	-0.56274723813486
-0.090060726359069	5.5363033123106	-0.44581840212762
0	5	-0.2857142857143
-0.38456492153953	5.1805342841446	0
-0.7	5.0205501441189	-0.32507149572551
3	13	-0.2857142857143
5.1848675157348	3.2965660830064	0
5.4046165570399	2.9501485228537	-0.43988698776777
5.486289771732	3.4981838484395	0
5.4682750147717	3.0660382780841	0
0	8	0
0	8	-0.2857142857143
0.5178658825659	8.020802151125	0
0.25864598874121	7.6639427314904	0
6.7098208972434	7.2950601162224	-1.3269022195366
7.7	7.949747446039	-0.91833665053736
7.1577047253729	7.4844276204668	-0.64272934527953
4.5892004575887	3.5369189576522	-0.55981654583505
4.4420188491858	3.4660037233365	0
4.711527897636	3.7375259681419	0
4.3494632088922	3.8023533541114	0
4	6	-0.2857142857143
4	6	0
3.9913416390327	5.4988534517732	0
4.5093195747582	5.724109532591	0
1.4	14.3	0
1.5	13.55769230769	0
0.89284349994875	13.714781914708	0
1.2292962491126	13.670420041977	-0.37788942865261
4	9	-0.2857142857143
4	9	0
4.5502440226935	9.051086551406	0
4.2963154051231	9.3907765114078	0
4.5321110402369	7.5028925212181	-0.60552533206341
3.5085861108931	7.3893844432383	-0.64873189634878
4.0050480592533	7.4977657988521	0
4	8	-0.2857142857143
5.8961095330637	-1.3	-1.0125722125019
4.8982045728458	-1.3	-0.82217786726149
5.2296982103621	-0.31621891710017	-1.0679345669244
4.9010483556055	1.478997710586	0
4.5631533182214	1.9074133665015	-0.41231302454656
5.0320642355688	1.4518180616801	-0.36509190625555
3.5357179442866	0.46434418042464	-0.60031716899974
3.9407498163335	-0.4411178910574	-1.1087857494349
3.2826824657074	-0.47747544834602	-0.50866572047373
2.802260468126	-0.22902113419037	-1.4542342115515
1	13	0
1	13	-0.2857142857143
1.1191337005982	13.329221525091	0
1.4884720276527	13.02962190928	0
-0.21681247778723	8.5792000107362	0
-0.35118339610893	9.0917088673227	0
-0.7	9.0968147603684	-0.35256881313688
-0.7	8.9375	0
0.51662331659314	-0.40156299802931	-0.67799391089861
0.13474046208011	-1.3	-0.85683826964205
-0.16941603187845	-0.57512411281067	-1.4019543009948
6	13	-0.2857142857143
6	13	0
5.8068477026831	12.499749736815	0
6.1890713266052	12.67695534294	0
2.5984255358496	5.4578875982232	-0.67264342113488
2.2172109403706	5.4325217687574	0
2.4824672258873	4.9705265694472	0
2.6598112065826	5.3330483814808	0
-0.7	0.5146532048839	-0.51418317722913
-0.7	1.0492756199945	-0.88024243711367
-0.37698118088761	0.89350663208132	-0.33360419980628
-0.25096134668857	0.95145340086689	-0.90448711690516
6	2	-0.2857142857143
5.4002158317804	1.7678073061348	-0.50898482673054
5.8183999242367	2.5164331321023	-1.0840550371572
-0.13917028340788	5.5182991349521	0
0.31578338747353	5.7567158690792	0
6	12	0
6	12	-0.2857142857143
5.513035862904	11.994753403328	0
1.5285536174902	4.2362319729344	-0.43851980589517
0.57100063419133	12.499134596467	-0.56842257570583
1.2565986295401	13.42724014175	-1.149557674079
1.4486633887383	12.69302170761	-0.31714242590465
6.65	-1.3	0
6.903739311401	-1.3	-1.0953527719967
6.3980205255852	-0.38130956989248	-0.5855507841991
7.2175457166608	-0.5710098692386	-0.51938212652516
3	7	-0.2857142857143
3.5055774955602	6.7395375676091	-1.4094768265058
2.383927159844	7.4535505157878	-1.0620490471275
1	4	-0.2857142857143
1	4	0
1.2222221827385	4.2954008280594	0
0.82345085295407	4.2815033897546	0
5.6	-1.3	0
5.790373644402	-0.65252487431205	-0.38521635467031
[...]
CELL_DATA 5483
SCALARS Coverage double 1
LOOKUP_TABLE default
1.5194047100946 0.75995754257186 1.4173677120362 1.584654641207 1.4545544227725 0.89376389766157 1.1546372177117 0.68660096853567 1.1259798449838 0.22331204417776 1.8819716225375 1.6863318719701 1.5141518310288 0.73111732496543 1.2556793872924 1.7985639487187 1.0068861779188 1.1607365835819 0.6323489811063 1.6634862198177 1.4300082631137 1.7220780955069 1.9185480313552 1.0906448425736 1.6068333558627 1.4058652811601 1.243112238293 0.59351557457392 1.4255614759759 1.68510600695 1.5877858331091 1.7217592395212 1.2188806770496 1.8202622097777 1.4910924745963 1.7760914685542 -0.35725031556933 1.8099870540508 0.3548477112034 1.7391045535876 0.63321055228193 1.3818788397718 1.3957940546302 1.4768417008645 1.3319364669284 0.89653893606852 1.833778936922 1.113709500077 0.97459012906302 0.58236132881086 0.70079045526014 1.3042337075175 1.393772966914 1.5303736417017 1.6975110579656 0.97916027176157 1.5308133747423 1.9264563128671 0.86138945591796 1.8476678596094 1.5398534393623 0.71582177119652 1.4160094019603 1.5360490015092 0.82647687394773 1.6110338219539 1.1753920048881 0.6629570387252 1.7173117308601 1.6009239531305 0.84701979555169 1.0971348821745 1.829776457735 1.7005754737158 1.5573322015813 1.0376529395334 0.69424931650607 1.2959446181324 1.9487632743266 0.71624253700977 1.1739947232346 0.82861465065162 1.5108200074892 1.2161675961179 1.5111809328262 1.0148348313295 0.63333673668419 1.8179731542239 1.7776366857723 1.5607652386311 1.2053541282888 1.4253207455829 1.2899331033358 1.2263534748335 1.4649451005953 1.633449578698 1.5965168684217 0.98056245499958 1.6519576903964 1.7214888472728 1.3077677671972 1.8034243336861 0.98926187074299 1.6032410593089 1.147927245327 1.5831275323064 0.39060321730067 1.1605003969652 1.837267866992 1.9123519726434 1.7509504106304 1.285850673768 1.487515548839 1.5588534855667 1.1694168179547 0.75069851811493 1.0233740639719 1.0568656544445 1.5750956247426 1.2153607433176 0.97376686448448 1.6271691892524 1.2639540250284 0.44995174493974 1.3230954253262 1.7908588475217 1.0862565328846 1.8006372195717 1.337585312762 1.5550075266256 1.5186705223419 -0.173170616008 1.1012372918845 1.4347934346619 0.83654689091898 1.6033033420317 -0.34960435029826 1.3848905856729 1.3802426502854 1.8810715014844 0.60149286444133 0.19678515126332 1.8014798722179 1.6973544812008 1.5535834599419 1.429958652267 0.8741133306668 0.81615454666246 0.97157315938073 0.58814789708455 0.4375368696084 1.87025188584 0.81367719419023 1.2061945990867 1.4136102965387 1.6440803383699 1.5423175230487 1.0596326450394 1.7434567526755 0.8490150436572 1.4090606555835 0.78576582960824 1.034264312293 1.5995459220231 1.8823624964909 1.669748518932 0.60120186391905 1.8635242644778 1.4605185849726 1.7900226829858 1.5987922498145 1.1848656733264 1.3331658240933 1.8512056233975 -0.010189448767046 1.8787724496443 1.9228453189738 1.7809935346398 1.689410071505 0.18902843458097 1.5664956351253 0.42273480962163 1.1361308064631 -0.050050036682689 1.227601695286 1.9058316027434 1.410691398563 1.5779208048795 1.8400259444079 1.3452522450814 1.8811381145588 1.342324276088 0.72909531140376 1.6211984388652 1.3114611975417 1.0901514692871 1.6578720494566 1.5508153868977 1.4171670470635 1.8685468418355 0.66899636920914 1.956151436399 1.5132272469157 1.5119958131533 1.9589282202197 1.7021399077309 1.6703371614745 1.4842103268212 1.0954646860948 -0.3984889320938 1.3842672928092 1.0895263245847 1.1926099710154 1.9014817725409 1.8831248013835 1.9023131461723 1.8222576133906 1.6025991194221 0.87429156896764 0.86838295578255 1.3917169805392 1.7488612965427 0.57145027329248 1.9091120143339 0.75981022331033 1.7069084836106 1.6052732933864 0.89704136883886 1.9244231764648 1.2150339633847 0.92342603375523 0.88521493439105 -0.10429057744733 1.8757496870426 1.5346487438835 1.1957609081181 0.56463934143729 1.771985198932 1.7766511746819 1.5543237308866 1.7768785786416 0.69319465055735 1.5950745739255 0.98534722995693 1.5922085075645 1.8559283177223 1.359385639452 1.5451732788458 0.60001326259852 1.622295741197 0.70931623175957 1.6517581015655 0.47270404891139 0.23064893146704 0.069543807568754 0.45303358684979 0.89007106379364 1.8780720872608 1.3259488205967 1.8816228326297 1.1106776856829 1.1063799177784 1.5911818635118 1.3628303112365 1.9190156096286 1.8422730011744 1.4672946493149 1.8542923031473 1.5737540088857 0.7856831370761 1.8610809650889 1.9076332920007 1.5544369141604 1.4349685237083 1.8645468745732 1.5430214504805 1.8694388788078 1.59781532058 1.6173977391636 1.7363723095659 1.6667776992092 1.9683412133595 1.4506816108302 0.54758307817558 0.50693249949812 1.2953177184429 0.9904944901399 1.6025116304606 1.7426598895015 1.3129967815525 1.5418963828118 1.8539276241545 1.6999817306994 0.64227539589272 1.5003393741417 1.7091950294852 0.74681583345639 0.38434895823003 0.8639404410382 0.49627000832091 0.46491527458348 1.6055903415713 1.392345098195 1.096050388973 0.82901568306405 1.1408815288932 1.6616498371039 1.3198355128759 1.5493286797707 1.1275613843998 0.75016710255363 1.6010146991468 1.3038968958939 1.2553477995766 0.67577452910609 1.2126944182747 1.5377675440014 1.1166452250089 1.4581351816853 1.2041423786846 1.8329343549396 1.6162838866237 1.5468039596872 1.4370906064574 1.9283120821759 1.2811568318547 1.7107634057899 1.5890356509158 0.4820728008589 -0.6207032929523 1.6460965432004 1.2363361475422 0.77629735452715 1.5619251281319 1.5553153142422 1.8333061430649 1.9159449682486 1.0044521515867 -0.54011848549096 0.87794686560671 1.4158406498423 1.2250572158616 -0.23861142847568 1.1069489136254 1.0663881700994 1.4326762441037 0.93490358453819 1.5993288985583 1.4316878394486 1.2610780599377 1.5534032823257 1.7552457006469 1.7640637459811 0.64177594299861 1.8951414226786 1.0244660207961 0.16666173641861 1.3275911992955 1.660576139238 0.53392384672817 1.3125713439734 1.3856742304858 0.76674105783446 1.3960876651758 1.7469197119368 1.4874329447051 0.90614080427497 1.7551840869012 1.6877672338462 1.2845383512149 1.3254411947731 0.99300046052638 1.513630941159 0.30557991282584 0.6149113351267 1.1601087178323 1.3065262539981 1.5383656015794 0.76953120650214 0.48418499772165 1.8171968587147 1.8890607129512 1.9127345620302 1.6193600333505 1.3739324318487 1.8857941374849 1.8498537501576 0.59434264993022 0.85749658473275 1.5183302804688 1.0138547592968 -0.21334498470367 1.6195056289717 1.4361184200759 1.380918474089 1.5957247773337 1.6372981938177 1.488532397345 1.4950400425718 1.5597921195199 1.1032829002255 0.8307253806246 1.0424391525059 1.6922255660465 1.994581505512 1.2535752551112 1.3688697636511 1.7232223481579 1.8474449790529 1.2878590501634 1.5786679715898 1.5258891424421 0.74168137831359 1.8626703850139 1.4670054879081 1.4461728031347 0.98501789692452 1.5772824184231 1.8492156924676 -0.34492900881843 1.6050065381107 1.5241014552921 0.56542540452885 1.4274911352859 1.3801582102373 1.0540820576342 0.21661185125001 0.18388612319976 1.6114874712921 0.31761031184463 1.710388919411 1.3672409716183 1.7888546670156 0.91689865639936 1.757200318719 1.4697298117282 1.7502491378106 1.8175197703772 1.4128887024927 1.2080196468861 1.4397888695704 1.5827766231524 1.2916338598101 1.7683048572733 1.8468754637524 1.5705828351024 1.1605097700993 1.2909078001094 1.2023218789661 1.2425136360413 0.97170835489541 0.69717876893434 1.4657606545841 1.53852598287 1.8707614273206 1.4928699776774 1.899523931503 1.4835540393347 1.6988753256184 1.5008307008396 1.9147911881567 1.3366911368415 1.0165602657414 1.5997452544938 1.9763468458972 1.5848953431183 0.87503773506149 1.354167275543 -0.20976543427202 1.8571973012894 0.51364154555031 1.8355725714627 1.4948908106605 0.26573757149173 1.5918283345578 1.3198046603609 1.061697954944 1.4895406117148 1.7137355436412 1.8751451148821 1.4173097812433 1.5354363524032 1.8181003500033 1.6472221518383 1.3854522124647 0.72218475102397 1.6317800748651 1.5988626339784 1.5444264365272 0.67069172242131 0.57466977053027 1.3914756319871 1.2529654353636 1.5231628825516 0.84837381003899 1.8617536256402 1.6635753659772 0.81509261915427 1.9759371571946 1.4203650194388 1.0812791930174 0.63387637954793 0.85514474013398 1.0072897996247 0.56440948074346 1.7223022312242 1.6237152612116 0.033112725597705 1.3684187452479 1.1699556964529 1.4662281779723 1.3582129139644 1.583513074925 1.5631041096819 1.8547711348093 1.0560895432929 1.6176835289033 0.79004551880184 1.0827700510547 1.3967064894406 1.6317218537292 1.1066879895468 1.7933394120405 1.6357690618847 1.3367702403589 1.6106406606282 1.4425664706993 1.675629911089 1.5809843006025 1.6368989213052 1.6086557972778 0.42512369244091 1.3269226299603 1.4466287470427 1.8531755926789 0.76229220246255 1.8203064069034 0.98262241590083 0.91481012642667 1.3648572277753 1.8257811307687 0.9004969507835 -0.65125444956326 1.7404515176241 1.5797226694791 1.2720680760813 1.7026635737569 1.5050364357961 0.67065363541076 0.84509178816451 1.8869529190943 0.95714695681928 1.6011936474768 0.84532585036916 0.71998452164415 1.3862712037505 0.57298212447312 1.5814969032636 1.6231798444434 1.543946422966 0.12312686675429 1.1362545788179 1.7174138549723 1.2303675429769 1.5524268901203 1.440458084872 1.418287077546 1.4552858123299 1.0937426072777 1.6081833585233 1.5798384523471 1.018756140983 1.0926725735312 0.28310424051693 1.9706042714574 0.96297474800398 0.33256172906908 1.7511789643852 1.3446023628278 1.6458269554532 1.7097431118335 1.6864679117364 0.65864593386071 0.84888200457798 1.698383033187 1.402893143396 1.6521246829893 1.1445842384055 1.508580179082 0.86945823834398 1.0588022660216 0.90630075839822 1.5259077774024 1.2298398268319 0.7021621002192 1.9026377393004 1.6772163640149 -0.54872152744993 0.13881378016155 0.91011449483375 1.7232483815882 1.9005719447531 1.5666110630649 1.8561213548317 1.2134533698055 1.4635958042977 0.63971290383948 1.6956240036027 0.41820230424126 2.0067389169089 1.1302094088195 1.6299645437258 0.90442594318438 1.625147185816 1.4954354934988 1.3613117691342 1.4452801342059 0.42553901487444 1.851812344334 1.131661682384 1.5116073832553 0.47744006388452 1.4835394235322 1.5932653211668 0.97489733263074 1.3732537141543 0.9059318576085 1.6963734646582 1.123830681779 1.4835713526272 1.3914701713803 1.276837059116 1.879482170794 0.75204411599966 0.43849630322714 -0.50938153766756 1.792501907373 1.1519565555657 1.0590383080255 0.75826077598878 1.8465161682921 -0.18521727878913 1.6410623428294 1.6062162326307 1.1183780917714 1.0275696002281 1.7994600935174 1.9015271997341 1.5001292613935 1.5637782433509 1.7951444813938 1.6438589084641 1.8610594129552 0.72892128660309 1.6426156816711 1.8621311173415 2.0628650277887 0.74744609266181 1.4729994816971 1.4106268843094 1.4746586137422 1.6384517965465 1.6326674254347 0.64134935094523 1.7371497427674 0.74552923013893 1.1467369954409 1.4867404641625 1.9395432900097 1.1890532077282 1.4224817008057 0.13720920176248 1.6825201577528 1.6661479487285 1.1725185228308 0.28618679001955 1.4056942536473 0.73807891397176 1.6568089762921 1.2265242477593 1.5105761154434 -0.32344560376842 1.5949743081843 0.65325612574078 0.78472248058616 1.8654444504422 1.2828281863874 1.3715417320117 1.5408857232561 0.48198801764191 1.8845856600864 1.8208610032809 1.5301608652843 1.843514580537 0.67564407122552 1.7085503364823 1.6262303218313 1.5364946144067 1.0502982264743 1.8117348248545 0.5174463164158 1.2808277540831 1.4018560863908 1.2018180348396 0.8127089648903 1.7863618739656 1.5656537424076 1.4103356673687 1.3920448086334 0.73334557136637 1.4099330464145 -0.42155053744205 1.6142416495013 1.0185123317883 -0.25262017785934 0.27221386296505 1.5503548913736 1.8573355700055 1.346147010849 1.3922188368295 1.9147813120579 1.5447259810534 1.0971749639788 1.6411013948787 0.93986637922924 1.2105644377522 1.4994506896375 0.98148455137384 0.35620277688729 1.7222426942845 1.458397959613 1.8734637414073 0.78578914719716 1.6949575580632 1.5597486189367 1.4965143632273 1.5813866784708 1.586391087193 0.24001670590654 1.1139256185909 1.4612616609945 1.0536712736735 1.2476209842982 1.1446198129092 1.6957951083584 1.0858610510433 1.2621973569097 1.4817375943435 1.8303682838064 1.7595271180394 1.7493537854296 0.6583999114018 1.8748445105754 1.4876255099684 0.78028760652077 1.2001972233626 1.5119414718377 1.6933779766998 1.1280739400154 0.83728183471392 1.4579476794142 1.6253935502979 1.9369370431523 1.4415099385895 1.3161800782889 0.8271311031667 1.4187547145781 1.6027217236755 1.6031440665113 1.7904060628305 1.4488573713689 1.6162029318418 1.1650117554646 1.5597297868681 1.6093265964217 0.82275533409346 1.918624843805 1.4027722006162 0.58955926865665 1.6098968853353 0.92032512551863 1.5490945126517 1.2484690934857 1.7389939853604 1.2015183067976 1.2336145484902 1.572074880254 1.1639202880024 1.676671246912 1.8695384944657 1.3445970572982 1.6612485205157 1.4618806488104 0.4897615158806 1.1582889690479 1.7953502733154 1.7425209799329 0.24820673434827 1.6034906777442 -0.53636075074704 1.4196335334488 1.7397377735765 1.3119526696278 0.66640753831621 1.7847976057378 -0.6631907986511 1.7902729801647 1.3385891986609 1.4362638461801 0.75215496726213 1.1880120741153 1.3966292771451 1.0741331277091 1.5101399026871 1.0842471243894 1.8256389721122 0.78227464181001 1.4303375487302 1.5156873469615 1.2601090046186 1.3629008636344 1.5949267186911 1.6002199158878 1.4663586287409 1.1180104998005 0.61819517616096 0.75265199543676 0.66888963339446 1.5431680044759 1.5867018073016 1.6003297611599 1.0793445660359 1.6827660815683 1.6301920001786 1.1702749395804 1.6028380254081 1.4344800288218 1.6163668012588 0.53791690334432 0.97910657944924 1.6179557894225 1.2843982939383 0.99212838637412 1.3471748687317 1.3680634098379 1.0639187744262 1.2851528391177 1.5621772581824 1.5436377572916 1.2160031590109 1.8685628688759 1.8345115168202 1.0965153995031 1.6036332615906 0.73345226072998 1.3288105696396 0.65939422351304 1.6564376487459 -0.19152387319201 0.75034008006273 1.5531113414647 -0.24241429713343 1.7036224218145 0.7359490518824 1.2897966506684 1.3348171815306 1.4402428811418 0.82060712967345 1.4201746144283 0.50855218670816 1.26319755321 1.5882109437154 1.2846666439569 1.583948677039 1.5877559027615 1.0109415125099 0.84199347610249 0.52220363154853 0.78763910415904 0.63938427111196 1.8925278962719 0.46033791134511 0.93772258313033 1.5378337556846 1.2939511347286 1.6477758828504 1.8536651092106 1.6559245869803 1.6374935592737 1.2523164262104 1.4018519402544 1.5344956398615 1.5535023908046 1.7144370585863 0.56842325926648 1.5909676549331 1.6186716454385 1.1804558462991 1.1771301826773 1.6778369488982 1.9560252073158 1.604216005033 1.7299869707561 0.65773760321495 1.2472015108662 1.8219025130274 1.657952211919 1.3209123458262 1.7396703859495 1.0410768536132 1.3840400790744 0.45810784420229 1.7231302972783 1.3262673632793 0.70955101282213 1.4512452853783 1.5372585818556 1.4372392860201 -0.14524866884974 1.2937520621612 1.5930488243609 1.8991256831375 0.35286488426892 1.7759883217454 0.86644360658166 0.22716761980175 1.2328010095849 -0.44439021021381 1.7308156120722 1.9634402751553 1.4483059136102 1.0190190062235 1.5281995786876 1.8173290799855 0.44272896092968 1.6000644556513 1.5162106291052 0.22468136267138 1.4856712254811 1.362234642041 1.6535063609861 0.96341557976153 0.53771281469753 1.4452246161815 0.64612360348581 1.2711638342559 1.8828543913782 1.3704758365852 1.5052627017624 1.3570251470118 1.6389436888663 0.37173186723339 0.41838732689779 0.98742298017915 2.0403493391193 1.1542625089227 0.62808020687783 1.5334180314906 1.5868359539609 1.0767910390048 1.3567383025855 1.2526440458368 1.3771439922166 1.6160747399148 1.4805785164805 0.76513691928566 1.2958620537407 1.3548451880173 1.6337606449778 1.9063516466777 0.61949413906913 1.0001501904489 0.5042063091354 1.5327658010581 1.3257092804442 0.85696990488979 0.99930058385838 1.7210327915387 0.52213436568787 1.2062531182776 1.0804969468394 1.2969536304379 1.7527537440647 1.2452106077998 1.1403058564691 1.8098854310098 1.9026825185073 1.5507116082683 1.7533560212544 1.6326074800151 1.2639476825128 0.79052000678805 0.76939468900732 1.4813744016484 1.0817882411517 1.1937016211014 1.4986789454136 0.78423173003619 1.6725010944823 -0.1195754481755 1.8101899181543 1.6179231046625 1.3678974276119 0.57532603676241 0.70400446641873 1.774826471816 -0.015879449813634 1.1632322222943 1.3998489174941 0.61268575205397 1.1587367317842 1.9079405744896 1.7982937796438 1.5245045027221 0.69211178837216 1.7593656585755 1.7054672450616 0.37019296503834 0.93613376445035 1.6490585450574 1.0243887542306 1.5602677857691 1.5554622925856 0.95377780250282 1.3794549383315 1.2468868164195 0.77583983050376 0.64865727334385 0.64289878164305 1.7674237229335 1.8616964050665 2.4884352632109 1.5986915491001 0.91979939827986 1.6674140792242 1.4821530575759 0.96655398229654 1.5136634424645 1.7214220420743 0.5354544711716 1.7128027096153 0.8938400433473 1.7521493877469 1.6214650247477 0.76108750317044 1.1544213473357 1.5212155976097 1.4207230961359 1.2532585248678 0.9106967083823 1.6641204959638 1.8232925934174 0.8677710175362 1.7114482178439 1.7559583982102 0.51136317277788 1.9889327517711 1.4204493961573 1.1947498727473 1.169030124477 1.1240936462646 1.5942561324866 1.4850647477305 1.7159787711386 0.94460236199462 1.7898537253256 1.3869008401359 1.4586061237489 1.3429924775137 1.0519424983375 0.67269605660956 1.9109944409012 1.8944356200693 1.4339830234659 1.9264894859946 1.0772518229541 1.0392288721303 1.5442643979544 1.5070159827168 1.3597675585725 1.3688410982759 1.5130886257632 1.0540599496999 1.8518208783365 1.87023048365 1.4161874926475 1.0576366160612 0.80767319611512 1.4237764911682 1.2705088651222 0.30954985308521 1.5739406283912 1.7324891027985 1.2946690229619 1.8504706379307 1.3504805777867 1.0963778405506 1.9069314365312 1.5463695332324 0.7319294139766 0.73992379019929 1.3008885863815 1.8130059167499 1.1899664627823 1.091078434486 1.6121982941402 1.3216838495403 1.7378065526733 1.6285022572769 1.2328324201415 1.4040596817078 1.7980283238158 0.90621383494508 1.5940733228116 1.6593306741073 1.8920577559977 1.5077479268518 1.266269699102 1.7810437374816 1.7734408187944 1.8175376172407 1.5294930400296 1.473016440609 1.5241533153996 1.6095449858649 1.4829911823998 0.94618511815549 0.078725653610674 0.88955986527528 0.80594973958839 0.78718190725734 1.5815834286464 1.3079943193864 1.7730004851216 1.2590908282639 1.5351298741948 1.2851815324121 0.59827030127709 1.7732515965286 1.5667608040753 1.6547468736364 -0.33890079138218 1.8668988076201 1.6225869626568 1.0489517153808 1.8621559529684 1.1970505734242 1.2202576031491 1.9338513031036 1.3145840768473 0.63311499694407 1.4645753741794 1.2143805369953 1.107335116601 1.7940580049604 0.96537108958715 1.6557075646199 1.3312890963767 1.3436064569045 1.0490646404525 1.7871742280759 0.25301607776817 0.69867422527695 -0.50184762978959 1.3934416857117 1.4733012817066 0.80721333654501 1.0338726044578 1.5952676872093 1.7834427449287 1.4215705295652 1.6323953399495 0.90065707692131 0.92607136862822 1.8653197658001 1.7420587376087 1.5049640486483 1.6194253431533 1.5005168051919 1.4252716874178 0.60547224446505 1.3898421300648 1.6816377890726 -0.13079264019946 1.3814334856436 1.890180125433 1.4480933929854 1.4251936597914 1.2573887564257 0.89717242831866 0.44827402858441 1.5477672717133 0.82296524874586 1.3810868469899 1.4096183882839 1.5667863446454 1.6440791648298 1.7797357334407 1.8131491600053 0.35353396309955 1.4737342878374 1.1203054847551 0.42768124839452 1.8242212179656 -0.45599593012406 0.5952089590544 1.3220172516837 1.6959268394365 1.0180487567144 1.4993067597055 0.57728564772343 1.4382839775404 1.0408383941271 1.2858702795941 0.97902057189265 1.043609710729 1.9047984886102 1.501843960772 0.73521231710858 -0.041704263090588 1.0940258729574 1.3335319967109 1.5772395605925 1.4824259795233 0.97987969118673 1.8540000715986 1.3462723204738 1.5266956336773 1.4661723739214 0.79582459175281 1.5737517457914 1.5344430876312