# vtk DataFile Version 3.0
d-3__ created by libgimli-v1.5.0-1-g5991b6ac
ASCII
DATASET UNSTRUCTURED_GRID
POINTS 1483 double
3.3802423101098	12.435481574566	-0.57001420684378
3	12	-0.2857142857143
3.4959596309848	11.998298039034	0
3.2490070092203	12.168560129388	0
6.0395510135596	13.367156253372	-1.2757999763971
6.5930002103947	12.023472734859	-1.2922192071349
5.4998599382803	12.552571297657	-0.59337769664261
5.29662096318	11.932351047571	-1.5392209346082
5.6153020589615	9.1440579133635	-1.0774777831171
5.7237069713611	8.5589744845549	-0.30827017969781
5	9	-0.2857142857143
5.3151026533923	8.4249591108801	-0.38240156963578
2.3178923476779	4.1926464382665	0
2.5373292327812	4.4716333182052	-0.48281884804687
2.3342974478463	4.0018571812202	-0.30572640106363
1.9994701911036	4.4258543307655	0
4.8968211033092	12.507755029533	0
5	12	-0.2857142857143
5.2932790228536	12.494788035524	0
0	0	-0.2857142857143
0.54768630893449	0.55020446432687	-0.60775225926193
-0.16846798780902	-0.24002860812406	-0.65332445545953
-0.28063481777066	0.41453578455018	-0.44890469943706
7.7	3.575	0
7.3102059000399	3.7470939102263	0
7.7	3.6732286664853	-0.53772532608145
7.3176226410905	3.2857280588852	0
-0.7	-0.10798167686939	-0.47517111104905
-0.7	-0.57707899562378	-1.1376990549501
-0.7	-0.61986630133594	-0.43486724047509
6.3962361866998	10.611290418241	-1.3182185489848
6.565939673393	9.5694509864085	-0.57379796778735
7.1295911592009	10.496363016677	-0.48219980545192
6.3839624611364	10.341052129245	-0.35036617584397
7.7	14.3	-2.5
6.7623683783591	12.987112326146	-2.233077027779
7.7	13.059020885286	-3.3539705522597
7.7	13.327367479896	-2.129915020979
1	6	0
1	6	-0.2857142857143
0.93236760237426	6.49128333619	0
1.3454573625665	6.353105459937	0
2	5	-0.2857142857143
2.1684298754346	4.7403793023811	0
3.0226729813355	8.4836106439452	0
2.5164096947204	8.910651700233	-0.41109082170818
3.4071201441719	8.4167381876838	-0.59109415332551
2.5374808587914	8.1383747261781	-0.35604109466584
6.2778911301719	14.3	-0.61136458754231
6.2225356773765	13.691717475418	0
6.5208076177088	13.495118289851	-0.49928801204061
6.7358646795693	14.3	-0.39005656748015
5.7965188279432	13.281940723964	0
5.5320359851605	12.925291312368	0
5.353113789845	13.264183036004	0
5.5919457801018	13.101154188917	-0.33537516396337
7	10	-0.2857142857143
7	10	0
6.5010306427949	10.010760669106	0
6.8196744207924	9.5136576917357	0
7.7	1.1375	0
7.7	1.6430719769933	-0.42557297445049
7.1939383721229	1.4724531054162	0
7.7	1.625	0
6.3572581294301	1.4772201134971	-0.96507376287322
6.5574763981385	0.84898833643366	-0.48332647821142
6.7774291048203	1.7003141153393	-0.4123635555875
6.1433933962903	1.4220674799247	-0.28622251631329
-0.7	9.1984657118068	-1.9278839451739
0.33291529395702	8.3305676904572	-1.2970017952003
-0.7	8.1442617177323	-1.0898260028896
-0.7	7.644268062563	-2.0766032868031
4.508194357046	8.6258793740749	-0.60770874662543
5.0095189690676	8.5009469809039	0
4.7609249278557	8.7686419230913	0
6.2306672701993	2.67753718	0
6.6360398560532	2.4670661479797	-0.44686919005428
6.4910302172834	2.4939022421641	0
6.1550873755842	2.4572757142813	-0.33684154297057
1	1	0
1	1	-0.2857142857143
1.4901571161019	0.99574153349402	0
1.1736530561382	0.72346383359363	0
2	4	-0.2857142857143
2	4	0
1.6440539242474	4.1532454240512	0
7.7	6.9501255673919	-0.74418826283982
7	7	-0.2857142857143
6.7521552376889	6.497772044976	-0.66059363300197
7.7	6.3887218416049	-0.46884913673037
5.9482896260331	7.5800048202495	0
6	8	-0.2857142857143
6.3095291646476	7.6896230263426	0
6.1432247512519	7.3579252770212	-0.41388970597853
3.501272057481	12.437082442362	0
3.3297831413816	12.805427976196	0
3.6823393063421	12.851671876304	0
1.3671388209093	10.633374397873	-0.4152980605108
0.95248763025238	9.835503527633	-1.7808732395437
2.3518021577517	10.495200039554	-0.50930668321109
1.5373497846005	10.021005779616	-0.41781002197689
6.2054585007625	14.3	-1.3884356875417
6.9442913034148	14.3	-0.89278753613404
1	8	-0.2857142857143
0.54167473049383	7.7707286368021	-0.37916050195481
0.44975345341211	8.3808810318019	-0.31136669048163
1.022076618805	8.4121844676845	-0.45670843222423
0.89173681858685	4.6122796653579	0
1	5	-0.2857142857143
1.2386083631299	4.6841794176855	0
1.3923592539172	4.7130963353432	-0.25978315417498
6.4242299347383	5.6840176993625	-0.35514079575845
6	5	-0.2857142857143
6.3424541740313	5.2754910113697	0
6.0447933133998	5.5049876953384	0
5	2	0
5	2	-0.2857142857143
5.5190673049038	1.9208326821789	0
5.2306444928855	1.6547875838902	0
5	13	-0.2857142857143
5.257359886178	13.540476325965	-0.63012071696907
0	6	0
0	6	-0.2857142857143
0.066757795936057	6.5008369551487	0
0.29243888553297	6.1743316976873	0
7	9	-0.2857142857143
6.5033796411008	8.9981073418213	0
6.5607922823332	8.4440251373986	-0.63122800754088
6.811726958696	8.7028726276344	0
7	5	0
7	5	-0.2857142857143
6.4986646723997	4.9192017057136	0
6.7141996182955	5.3303468264748	0
7.7	9.5988491781319	-7.4736716195817
3.1507199964473	10.394874003632	-10
4.8663216648816	7.3792654266676	-10
5.1015502438684	11.553440122249	-6.405163284031
7	7	0
6.9589015254993	7.4884372736447	0
6.761634669635	7.2408783569561	0
6.0574437090791	0.20878539066113	-1.8779478182653
4.9838025543493	-1.3	-2.1179854334408
6.0308685444023	-1.3	-3.5425074203685
6.440522236286	-1.3	-2.0103523001383
3	2	0
3	2	-0.2857142857143
3.0105846506	1.4855923993349	0
2.6480485575569	1.6700894103009	0
5.0527203000088	13.535479310798	-1.5373151531841
5.0246691847863	14.3	-1.036131499603
4.1300067609037	14.3	-1.2024507502556
4.4744197407865	13.547407617085	-0.63586628370479
2.5813517996865	9.6286485974984	-1.0236151505326
2.2955236368793	9.5881134365907	-0.29154811067367
3	10	-0.2857142857143
6.4248505083522	12.522044346884	-0.42559946143008
6.465073985677	12.51782996062	0
6.1644652963082	12.36965297069	0
6.3832046574853	12.135664356038	0
2.9908655166747	12.498069465114	0
1.984703560175	7.5906357794687	-0.50777967523709
1.0508409188237	7.354634772545	-0.95680796450018
1.4515039911109	6.5829264157992	-0.56173008002516
1.3866216751759	7.5118935788728	-0.35488362790971
2.45	14.3	0
2.2168273415577	13.627179222019	0
2.4554693735383	13.497784276817	-0.39727655195048
3.032551925238	13.762466584345	0
6	11	-0.2857142857143
6	11	0
6.4843452951013	10.966514281357	0
6.2440599782187	11.234710090977	0
5.5	-0.5576923076923	0
5.247952850371	-0.29481663567353	0
5.5452342683804	-0.096294524539033	-0.49623355575102
5.1016398375367	-0.61489919294387	-0.38960315167385
2.3232496140345	4.0110297188843	-1.3835068702753
1.6586320571652	5.8268322896535	-1.5213554090482
0.71002746520551	3.976198472286	-1.505315421377
1.3296414347056	4.9089994064226	-0.82629172929831
5.6	14.3	0
4.6510156691765	14.3	-0.56274723813486
-0.090060726359069	5.5363033123106	-0.44581840212762
0	5	-0.2857142857143
-0.38456492153953	5.1805342841446	0
-0.7	5.0205501441189	-0.32507149572551
3	13	-0.2857142857143
5.1848675157348	3.2965660830064	0
5.4046165570399	2.9501485228537	-0.43988698776777
5.486289771732	3.4981838484395	0
5.4682750147717	3.0660382780841	0
0	8	0
0	8	-0.2857142857143
0.5178658825659	8.020802151125	0
0.25864598874121	7.6639427314904	0
6.7098208972434	7.2950601162224	-1.3269022195366
7.7	7.949747446039	-0.91833665053736
7.1577047253729	7.4844276204668	-0.64272934527953
4.5892004575887	3.5369189576522	-0.55981654583505
4.4420188491858	3.4660037233365	0
4.711527897636	3.7375259681419	0
4.3494632088922	3.8023533541114	0
4	6	-0.2857142857143
4	6	0
3.9913416390327	5.4988534517732	0
4.5093195747582	5.724109532591	0
1.4	14.3	0
1.5	13.55769230769	0
0.89284349994875	13.714781914708	0
1.2292962491126	13.670420041977	-0.37788942865261
4	9	-0.2857142857143
4	9	0
4.5502440226935	9.051086551406	0
4.2963154051231	9.3907765114078	0
4.5321110402369	7.5028925212181	-0.60552533206341
3.5085861108931	7.3893844432383	-0.64873189634878
4.0050480592533	7.4977657988521	0
4	8	-0.2857142857143
5.8961095330637	-1.3	-1.0125722125019
4.8982045728458	-1.3	-0.82217786726149
5.2296982103621	-0.31621891710017	-1.0679345669244
4.9010483556055	1.478997710586	0
4.5631533182214	1.9074133665015	-0.41231302454656
5.0320642355688	1.4518180616801	-0.36509190625555
3.5357179442866	0.46434418042464	-0.60031716899974
3.9407498163335	-0.4411178910574	-1.1087857494349
3.2826824657074	-0.47747544834602	-0.50866572047373
2.802260468126	-0.22902113419037	-1.4542342115515
1	13	0
1	13	-0.2857142857143
1.1191337005982	13.329221525091	0
1.4884720276527	13.02962190928	0
-0.21681247778723	8.5792000107362	0
-0.35118339610893	9.0917088673227	0
-0.7	9.0968147603684	-0.35256881313688
-0.7	8.9375	0
0.51662331659314	-0.40156299802931	-0.67799391089861
0.13474046208011	-1.3	-0.85683826964205
-0.16941603187845	-0.57512411281067	-1.4019543009948
6	13	-0.2857142857143
6	13	0
5.8068477026831	12.499749736815	0
6.1890713266052	12.67695534294	0
2.5984255358496	5.4578875982232	-0.67264342113488
2.2172109403706	5.4325217687574	0
2.4824672258873	4.9705265694472	0
2.6598112065826	5.3330483814808	0
-0.7	0.5146532048839	-0.51418317722913
-0.7	1.0492756199945	-0.88024243711367
-0.37698118088761	0.89350663208132	-0.33360419980628
-0.25096134668857	0.95145340086689	-0.90448711690516
6	2	-0.2857142857143
5.4002158317804	1.7678073061348	-0.50898482673054
5.8183999242367	2.5164331321023	-1.0840550371572
-0.13917028340788	5.5182991349521	0
0.31578338747353	5.7567158690792	0
6	12	0
6	12	-0.2857142857143
5.513035862904	11.994753403328	0
1.5285536174902	4.2362319729344	-0.43851980589517
0.57100063419133	12.499134596467	-0.56842257570583
1.2565986295401	13.42724014175	-1.149557674079
1.4486633887383	12.69302170761	-0.31714242590465
6.65	-1.3	0
6.903739311401	-1.3	-1.0953527719967
6.3980205255852	-0.38130956989248	-0.5855507841991
7.2175457166608	-0.5710098692386	-0.51938212652516
3	7	-0.2857142857143
3.5055774955602	6.7395375676091	-1.4094768265058
2.383927159844	7.4535505157878	-1.0620490471275
1	4	-0.2857142857143
1	4	0
1.2222221827385	4.2954008280594	0
0.82345085295407	4.2815033897546	0
5.6	-1.3	0
5.790373644402	-0.65252487431205	-0.38521635467031
[...]
CELL_DATA 5483
SCALARS Coverage double 1
LOOKUP_TABLE default
1.5015027039147 0.74514507711005 1.4061192292072 1.5685247661224 1.4415500721538 0.87644800765172 1.1363207580966 0.66740364189701 1.1111290414968 0.21236536870343 1.8386937347116 1.6587526420787 1.4903650794353 0.72366272765036 1.2447250428338 1.7893839051293 0.97831045558461 1.1442926301873 0.62729148000048 1.6495178938521 1.4376936826968 1.7071722197634 1.8948419742344 1.0690665229851 1.5960539185006 1.3913040658575 1.2420007371988 0.58471642118129 1.2950527975754 1.6496343847571 1.5696601191473 1.7537116230081 1.2058395282662 1.781368225436 1.4813551431697 1.7740067299154 -0.37152109707888 1.8051525212014 0.27162211990107 1.7721067044074 0.62220627665494 1.3691005904062 1.3868684044855 1.4607950291052 1.276695392343 0.89190977797599 1.8218011281941 1.034857173402 0.94339815290716 0.5698294125986 0.69016834715788 1.2804163506486 1.379405896202 1.5273692696123 1.7255425301714 0.95788271169841 1.4982123629816 1.8710421612613 0.86282082767501 1.833753674339 1.519604798177 0.63148231722042 1.4254304590252 1.5215931652766 0.72976224896849 1.581510190628 1.1782031125739 0.63835057725957 1.7108822681321 1.5701215938056 0.82898645774891 1.0910606224879 1.776706117761 1.6881279732597 1.5350958556463 1.0379512944218 0.62495460067619 1.2685539903676 1.928018367811 0.64457556716199 1.1560564550988 0.80195831250498 1.4980034801571 1.2182322304632 1.4977109492045 0.99743864740677 0.61008697894641 1.8450271768052 1.7674145227545 1.551355872213 1.1813618544127 1.2617891305321 1.2760478845546 1.2179246022289 1.4559255959967 1.6247447554539 1.5819763640952 0.97843040751577 1.6425357374738 1.6639505594467 1.29391545131 1.8040870766585 0.96316043674892 1.5984572021442 1.1188741609291 1.5422582146039 0.31887178282879 1.1347912411993 1.811642855325 1.8813751974522 1.6988236416009 1.2920671110487 1.479349927692 1.4772576080439 1.1602059460774 0.74399151613291 0.94890761900553 1.0194695203951 1.559678524236 1.2028867645775 0.95733786093849 1.6173201175394 1.2485060878888 0.42946060257829 1.2657600345294 1.7851155793107 1.0602371420737 1.8077142431843 1.3314877407424 1.5414830768039 1.4997835082078 -0.19719653521249 1.0677980875369 1.4211283885623 0.81719664622165 1.5889800595859 -0.39695224788112 1.3520852717053 1.3465427852431 1.8635839261791 0.56075073187853 0.17193909103345 1.7917824889035 1.6834024008516 1.5098410790342 1.4172278028182 0.8935314512135 0.70161541891068 0.93745970393653 0.59531179891389 0.37405306274417 1.8630359354228 0.82221954092566 1.213204619384 1.3973828014135 1.6359557367134 1.4772289941123 1.0538236612553 1.7345344046354 0.78323496064305 1.4301963016983 0.75260668381263 1.0014669677416 1.5864513709753 1.8668574753261 1.6467675064346 0.60277351816518 1.8144947338798 1.4263813623541 1.8025923387638 1.5858828668691 1.1719672890045 1.2878233587242 1.8372265958874 -0.075831781310759 1.8650914272992 1.9158117798029 1.7622743615394 1.6910732681427 0.17629012877892 1.5509738535806 0.41376911920276 1.1180853930021 -0.071788731726877 1.2142203428917 1.8680628167239 1.3994182524223 1.566999711798 1.8280105645381 1.331605173271 1.8665023159631 1.3299691026022 0.74263871181336 1.5997571069894 1.2736668842501 1.0747185522307 1.6391455746559 1.5393595718606 1.3986790938078 1.853775570496 0.5545188757977 1.9273715186699 1.4764903373871 1.5036958121074 1.9279592880213 1.6649756108669 1.7039915943245 1.4750142104541 1.0775935021774 -0.42134502643475 1.3776334535387 1.0738947152176 1.1749981555099 1.8900449323552 1.8554541008336 1.8719745613121 1.8453568316909 1.6037285182514 0.86453779134642 0.85816475327281 1.3743079455787 1.7360699581538 0.56510742827451 1.883300517453 0.72889218224375 1.6782631317824 1.5609445584778 0.85702475383567 1.9228177950394 1.1575997189288 0.9204100542266 0.88293833592941 -0.12794290869745 1.8627066095295 1.4611707184184 1.1715795589775 0.57661177079363 1.752194875461 1.705059983673 1.5415291839951 1.7649889541698 0.70877725904061 1.5838174866285 0.97003008406277 1.5807554551236 1.8422798591445 1.3277216173884 1.5319655524144 0.5445589432825 1.6166834574961 0.69023574050342 1.6738199089233 0.47625150783335 0.21879902932214 0.03096857252556 0.46002228385696 0.88116882330133 1.8655691358856 1.311696017543 1.8670603841087 1.0562589478467 1.0736653449269 1.5337533496107 1.34957859136 1.8039324306125 1.8408590630329 1.4576086827679 1.8603089649324 1.5417914595676 0.74333627734359 1.8601755685467 1.8901961794367 1.5565431743988 1.4322267432444 1.8465122998739 1.5495257585502 1.8595720300053 1.587394996565 1.5888006424052 1.7229508185776 1.6542289684366 1.9477005461834 1.4448569191711 0.53846307729725 0.51345254585799 1.2755497853101 0.9698167388116 1.5769871561842 1.7510748636445 1.3047749954988 1.5317607013971 1.8453032228678 1.7228845589475 0.57941949178906 1.4709772806946 1.6990556665657 0.7255626839767 0.3034074911279 0.84689556273985 0.51299373841232 0.45486726483002 1.5722403245561 1.4017039111242 1.0424997246271 0.81977470867609 1.1183308191289 1.6248714180416 1.3034801315186 1.5343109753221 1.110834337653 0.7421562266174 1.5872467122074 1.2729717197213 1.2531026609955 0.64361902892938 1.1682453501932 1.5237382303329 1.0856803756868 1.4463770077672 1.1707224057771 1.8246385066448 1.5572057947347 1.5402187529498 1.4214499100603 1.914799514883 1.2669168543441 1.6941978465897 1.5549620036017 0.47049720048065 -0.60690221844477 1.6341011700187 1.2077414308173 0.73820580450351 1.5394858323997 1.4958546182809 1.80790198275 1.884305496078 0.964421503823 -0.56559244186631 0.85560652127289 1.4147193342884 1.2216005787516 -0.22825072909895 1.0666286228746 1.0514988113147 1.4178229951491 0.91084894505271 1.5681820836831 1.3745487933105 1.2506952873807 1.5318627893283 1.7184910502861 1.7878160601515 0.60791720078418 1.8814500118687 1.0080831216263 0.13168456095274 1.315231833562 1.7479645470913 0.50169306711718 1.3061920260046 1.3711401673743 0.72528766611584 1.3813052197643 1.7414658771008 1.4755416520851 0.88404256563263 1.7624167461688 1.6763963962212 1.2591608781757 1.3141535523288 0.97668892613207 1.5035471969023 0.28231798564257 0.58734377456085 1.1513755262903 1.2973828296608 1.5229392835994 0.77170648975611 0.37564636062408 1.8223743631826 1.8862828502156 1.9004233401851 1.6034841426801 1.3598345344435 1.875458382191 1.8257484669124 0.58465550410037 0.8376316600262 1.5234631350773 0.99678522742873 -0.21616175410728 1.5940689283173 1.4159953973122 1.3955554851193 1.5785811352607 1.620563151386 1.4701439089141 1.4627891313963 1.5327886411031 1.083482887456 0.83895715144921 0.87811522184981 1.7520626241554 1.9323198403866 1.2416776518906 1.3573493546765 1.7170038828623 1.8530663130534 1.2735788737746 1.5016724600947 1.5140685079354 0.66685679308259 1.8288326296615 1.4211180787445 1.4480833372079 0.96017642174029 1.5619761298501 1.8350413613723 -0.36805640832752 1.5739163099103 1.5154735794775 0.53152771046538 1.4008597311648 1.3600894345867 1.0465059127322 0.20616604369315 0.14665445556565 1.5981326322895 0.31953703010141 1.6888209821842 1.3057070110977 1.8105202538962 0.89353463114061 1.7454301479579 1.4431373356297 1.7403626982425 1.8012756125922 1.4059680618186 1.1991018719658 1.4276732387926 1.5692708341598 1.2776888787242 1.7552149902134 1.8384318993221 1.5573216057284 1.1385806184861 1.2744769377641 1.1979733516657 1.2406180352161 0.92820780852144 0.69852350628092 1.4533838745314 1.5270634577228 1.7855218360763 1.4778351047329 1.8858223925728 1.4078925028893 1.6932087591087 1.4907990976874 1.8936921547031 1.2433730931022 0.99516904141727 1.5987775872107 1.932600499428 1.4930510555023 0.87823724186355 1.3440460227304 -0.24040240043473 1.8490804567065 0.46510607913942 1.8136047515468 1.4790375045307 0.24242092122246 1.575229557824 1.3119142151802 1.0717649867978 1.4996301035179 1.7203480328863 1.8540032159701 1.4275272356977 1.3859792508635 1.8061091462513 1.6320504139166 1.3753791076871 0.71166943003052 1.5883355611748 1.5716253004312 1.5286434178749 0.66305678852543 0.47431072711052 1.4426829889042 1.2367433675294 1.5061685655781 0.83524566086538 1.8467300811513 1.6103491887146 0.82425016289501 1.9323636673545 1.4237972813347 1.056027673877 0.63138311196352 0.83185137695972 0.98402234448456 0.53251885573823 1.6957528582533 1.6095924114154 -0.01235518036146 1.3436041512009 1.1597880522917 1.4498685138698 1.3444625150818 1.5386026388767 1.5159132471376 1.8020380569028 1.0389419882068 1.6002095125468 0.75967695885697 1.0762779063997 1.3867557015505 1.6014354576677 1.0954123461008 1.7821679219963 1.6216236129277 1.316927749099 1.5996568171838 1.4325989793966 1.6649259950443 1.5657892229764 1.6187158345937 1.5851727218981 0.41312652138067 1.3137533627698 1.4364615894314 1.823407366715 0.77666387214376 1.7987169527592 0.81438843416773 0.89468457229722 1.336617332199 1.7915658567897 0.87432247438093 -0.68837115199963 1.4092053765005 1.5403144004638 1.2726758488564 1.6996547916745 1.4707464868555 0.661331002158 0.82059456175014 1.8417655234675 0.93524516231329 1.5849051258992 0.83547361003468 0.6264852627723 1.3666378077814 0.56664047727392 1.5664533708014 1.6088763290248 1.5290599788073 0.052864405611084 1.1182837231248 1.6981173202062 1.2000006006017 1.5404711295048 1.4269287051413 1.3902723029592 1.4411524081432 1.064619139528 1.5925346175137 1.5625289627235 1.0251318831482 1.0822307535502 0.25411720222503 1.9168930174097 0.92046781947775 0.33880862602276 1.7385068926193 1.3265000350353 1.6185600290803 1.700184701544 1.6746202485482 0.64732480376356 0.85456110171671 1.5924765354025 1.3861480904454 1.6577703806394 1.136658077192 1.498443146036 0.77978682586438 1.0566629827046 0.86595547315112 1.5095373788334 1.2356820288027 0.67591965919224 1.8724891429887 1.6595844105741 -0.54917714521021 0.13049839054082 0.89170614358262 1.6421713771887 1.7580997375621 1.5536909307406 1.8428321505724 1.1019639785007 1.4521365121886 0.61477616526666 1.6802066376342 0.37201923397231 1.8855693302829 1.1082668255975 1.5685890119458 0.89935504416668 1.6094227085803 1.5006838901056 1.3527572403726 1.4323200523482 0.35416613654981 1.8581496170782 1.1448343292239 1.4966941725058 0.45371967098295 1.4713096154729 1.5812882656616 0.95353481978429 1.3595386636447 0.8796009825254 1.6951765166561 1.0967803498902 1.4717484316274 1.3760016474352 1.2658337635347 1.8661649555481 0.69113215950457 0.41103628806625 -0.52574917900589 1.7803332388411 1.1227838070142 1.0493156254993 0.75892418129128 1.8214225677495 -0.20408355505812 1.625564521564 1.5817517036028 1.0969240738444 1.0383061372877 1.7782230180114 1.873435659493 1.4700823947826 1.528565773199 1.7940765637016 1.6998686584656 1.8561955406556 0.73353805986926 1.4382193273369 1.8534747461123 2.04702411859 0.69839794712155 1.4597748969605 1.367240407063 1.4644181479701 1.5673383040946 1.6059626653504 0.6217458518299 1.7323356495455 0.701474650466 1.1313979138507 1.4719239387721 1.9288773967331 1.1250064810564 1.4129781042965 0.11480029639602 1.6833272223856 1.6610176368158 1.1720309667696 0.27437365136536 1.3972692148435 0.71302992153492 1.6611625655112 1.1803042516434 1.5218676456214 -0.34467080556882 1.3893343784733 0.67695536768672 0.76834072308198 1.856407637218 1.2736389007054 1.3187449218879 1.5355506219601 0.4620967016355 1.8702478820854 1.8436568162621 1.5171165515252 1.8291794285972 0.65760205412473 1.4618800575067 1.7112646314866 1.5251549717957 1.0344934199803 1.7950639870723 0.5047305819253 1.2643118828283 1.3840726585899 1.1812235441674 0.80087167247321 1.7793090891794 1.560905568809 1.3887405950445 1.3704683980566 0.70393455934949 1.3885216603424 -0.41076720680947 1.5860255583575 1.0058600302222 -0.27628659915796 0.25607331994231 1.5369608552863 1.5691962479184 1.3473054607361 1.3768828006762 1.8706900961377 1.5336242594861 1.0746228793351 1.6206262087179 0.91733479539754 1.1904374711336 1.4716722019567 0.96833499745698 0.35120220442629 1.4064403929067 1.4483182687052 1.8572197762255 0.757059863263 1.6661317923039 1.5334019350562 1.4567039303281 1.5667502307503 1.5907980251636 0.19125752650687 1.0134786744957 1.421967005717 1.0338584353991 1.2342276425934 1.1301141636038 1.7682963611571 1.0541163553287 1.2472692087414 1.4610998462307 1.7980392276783 1.740439146276 1.7517075995563 0.63636754127811 1.8663235733505 1.4725613772863 0.75414754560407 1.1860279033814 1.4957092211737 1.6237546540226 1.1103493342655 0.83985897647163 1.445361182462 1.5743443589116 1.9242812674545 1.4253975101241 1.2994939745784 0.79648690868452 1.4058143038493 1.5640178160773 1.5831821936488 1.8144647848069 1.4146537177148 1.5495618719801 1.1296450609606 1.5422999266419 1.5974987433485 0.82713817986624 1.9070487088096 1.3921194224599 0.56887477542203 1.5965714828358 0.88004632368219 1.5244466835219 1.2199838436685 1.7342978252724 1.2052393175189 1.208832928344 1.5634533733744 1.1459018219663 1.6569743211956 1.8561848223382 1.3168503018975 1.6439530304381 1.447434941446 0.4786202215533 1.0299102858935 1.7874731862139 1.7304841485391 0.14646625990076 1.5911099934487 -0.55385290637368 1.3925753392563 1.7279376845141 1.2970701664067 0.61319556138013 1.7717479743472 -0.70501673939433 1.7352248292972 1.3218673973683 1.437867588153 0.7312173996336 1.1736707144256 1.3848166935003 1.041905896283 1.4656165430617 1.075869607499 1.7283429800113 0.77290487307015 1.4207290517387 1.5059037465215 1.215633037583 1.3399842098208 1.5849458686013 1.5673489892378 1.4652502269455 1.0968369393316 0.62307160144428 0.7558404014034 0.62941766798642 1.5286882909676 1.5714901804569 1.5852961594515 1.0649268946044 1.6740200909244 1.5518833634618 1.1028341952755 1.5873194570354 1.4417864052206 1.6008687117018 0.50726857211381 0.96245545791362 1.6021173987279 1.2674237390152 0.93060571534892 1.3088083392509 1.3485613152068 1.0591846419334 1.2749364752006 1.5339974198457 1.5059481051519 1.2004457763533 1.8652014475521 1.824120745971 1.0831126120596 1.3834951146267 0.72248701993207 1.3417713287704 0.67225592339621 1.6422188444319 -0.20529316800097 0.67734015661039 1.5348804185101 -0.27351584204727 1.6689601961817 0.7051810211829 1.2880355721266 1.3135521874939 1.4321922159698 0.81846237572191 1.4057523024739 0.47392719828907 1.2474941250281 1.5697214736929 1.2687177695149 1.5473720281571 1.4768091249787 0.9724508854486 0.80221090005771 0.43229727097561 0.78050735680383 0.54565660321103 1.8363832792884 0.44883741106163 0.92161671262989 1.523614510048 1.2972768600207 1.5400080944905 1.5525158423449 1.5638981831743 1.6025366896086 1.2359895101314 1.3903384443218 1.515960214694 1.5380585599342 1.6909789605608 0.55246232513235 1.5793005995579 1.5647642485011 1.1718117207896 1.149098715108 1.6530562541204 1.907898753355 1.5997740638486 1.7198196638015 0.66786615647637 1.2387269343879 1.8082141312313 1.6239905852141 1.2903987514836 1.6840053883015 1.0223180893593 1.371725527123 0.41271422432138 1.737694124462 1.3014749341056 0.68005958204752 1.4648846501126 1.5222533002536 1.4157480413526 -0.15725493637112 1.2790234486673 1.5779207766211 1.8699706288545 0.32296568148931 1.7726304270708 0.81231152685509 0.21554586703258 1.2100502080228 -0.4609875991462 1.7080397120844 1.909256716601 1.42568045113 1.0018625810056 1.4944204243604 1.7549219822816 0.39297742051553 1.582221100169 1.487549815547 0.22164453542757 1.4477806370783 1.3478809383982 1.6385940196705 0.95238023311375 0.5277975580995 1.4297262354583 0.616735932575 1.2615599050044 1.8746418557209 1.3592317663958 1.4949245842222 1.3231244754352 1.6183710240452 0.35046556781725 0.39682630760612 0.97424960236356 2.0081878590923 1.1228869899116 0.61953808526551 1.5298880985015 1.5748476236196 1.0534953244217 1.3613051638954 1.241222634968 1.3443452873347 1.5719307420994 1.4782586222116 0.74147755438177 1.2902818468019 1.3357055946072 1.6167734086757 1.886849002693 0.60067619587371 0.87909299171808 0.47827292170097 1.5153013229066 1.3198317541693 0.79488735862825 0.98405011675119 1.769255103079 0.49865477394751 1.186713714343 1.0587660376918 1.2853149426292 1.7410572914362 1.2410590539015 1.1530083564618 1.7911896112875 1.8815149740504 1.5367582166601 1.7380444717859 1.6111849401549 1.235720427002 0.78897047094697 0.74929485277458 1.4860064881051 1.0636325947137 1.1836834611239 1.4890847098908 0.76165150702631 1.6478418871664 -0.15157760567258 1.8060526879894 1.6051261815458 1.3583612388532 0.53451657912463 0.60826909826587 1.7615351922794 -0.027197610190749 1.146531472556 1.3103900637159 0.60380045480893 1.1553596682852 1.8558783312498 1.8049247783416 1.5055629034859 0.66805345291374 1.708280663142 1.7397583387655 0.32022918052469 0.91214036626918 1.6386089278368 1.0075696188291 1.5484085133659 1.540363837518 0.93780193884407 1.3755650358561 1.23363391713 0.74067048258194 0.64442841120944 0.62149885561528 1.7831095069404 1.8456399298989 2.4780069332507 1.5564628824479 0.88202667949585 1.4195941238443 1.490857086296 0.93441971043441 1.5091816482931 1.7089759692178 0.49956925170716 1.7473789225592 0.86565634687193 1.7413242043489 1.4844321838731 0.75242975913924 1.1937196456645 1.5078089491013 1.4029965600634 1.2355309740743 0.89047694490807 1.649403268412 1.8118287116054 0.85080603539068 1.6964254412196 1.7447368770919 0.46512859690989 1.9764175361317 1.4194506490022 1.1800366873393 1.1049037604418 1.1210771769627 1.5769664918798 1.4684836558919 1.7120131923531 0.88252243259477 1.7899776231523 1.2942637284789 1.4406548272572 1.3294059845519 1.0359067136298 0.65266865255563 1.8968860338653 1.819459889349 1.4373556861829 1.9166994891317 1.059972811976 1.0328377084323 1.507556684789 1.4950468781463 1.3451062573966 1.3535759954184 1.4989272091421 1.0502674822196 1.8013562967114 1.8557980299368 1.4046098190663 1.0576218698684 0.79890346463801 1.4155331614358 1.2619058755287 0.31968521037839 1.5592791227596 1.7207452893623 1.2804147142206 1.8608747377505 1.352313121438 1.0689788708312 1.8808802768368 1.5186499639452 0.61681326184858 0.72942024179336 1.2846049887207 1.8317682431155 1.1766051928325 1.028738389605 1.5276858749085 1.312952147514 1.7165842915692 1.5883923388962 1.2162591517208 1.3513593672472 1.7322842693989 0.8856781391389 1.5951999336723 1.629777419539 1.8769970609315 1.4823708296456 1.2731880058013 1.7741398683378 1.7454247018158 1.811264878448 1.5171744074195 1.457024253149 1.471550649608 1.602528863827 1.4734379900104 0.9276967203089 0.030154490621622 0.88516306500027 0.78359323858098 0.76351837654618 1.5790101745731 1.2372970579057 1.7641111539066 1.2347486120831 1.5258933072005 1.2690840145867 0.60841128297181 1.7679047214315 1.5452860840587 1.6363342358714 -0.38204882815515 1.8500237935816 1.6103116304846 1.0342865096235 1.8358014158047 1.1899461787892 0.98747019366714 1.7855552940392 1.2984021108894 0.59585950156796 1.4559982636991 1.1950200877695 1.0945951208368 1.7850454050547 0.94240411362953 1.6137659121417 1.3181360177665 1.3369843717407 0.98091781852862 1.7792178936426 0.22285650780322 0.69067574590369 -0.49704602537069 1.3814369271398 1.4243297592683 0.78790891603208 1.0498348152324 1.5816010042989 1.6705067353081 1.4077147564612 1.6171882838864 0.88179552854838 0.85929818472036 1.8263451370989 1.7558524717976 1.4919361637129 1.5788468637565 1.4564581753069 1.4164317346286 0.59617994644686 1.3792696357134 1.6762938549241 -0.15240805541415 1.3367856414219 1.8803582018479 1.4393050612758 1.4119075969236 1.2448614793868 0.87185513674353 0.45556505211059 1.5439954863689 0.75201239011464 1.3763722360864 1.3980756641228 1.5431448026723 1.6018206313798 1.7915475649608 1.8208935593242 0.30630745270932 1.4666572635107 1.1023016477312 0.43504359499947 1.8126741698804 -0.48076447857901 0.57694147337072 1.2656014280305 1.7129232964104 0.89731912034635 1.4908002347391 0.55577819221303 1.4332420413764 1.0244933778427 1.3118157026206 0.96885167275108 1.025765038971 1.8880171138923 1.4593195639481 0.73384237093458 -0.097373321683374 1.0694091036918 1.3186406583549 1.5510040916423 1.5073693624627 0.95501324804318 1.8417656671321 1.3319361149578 1.5015899010125 1.4492632950683 0.73554476165853 1.5622945348948 1.5212394994431 1