# vtk DataFile Version 3.0
d-3__ created by libgimli-v1.5.0-1-g5991b6ac
ASCII
DATASET UNSTRUCTURED_GRID
POINTS 1483 double
3.3802423101098	12.435481574566	-0.57001420684378
3	12	-0.2857142857143
3.4959596309848	11.998298039034	0
3.2490070092203	12.168560129388	0
6.0395510135596	13.367156253372	-1.2757999763971
6.5930002103947	12.023472734859	-1.2922192071349
5.4998599382803	12.552571297657	-0.59337769664261
5.29662096318	11.932351047571	-1.5392209346082
5.6153020589615	9.1440579133635	-1.0774777831171
5.7237069713611	8.5589744845549	-0.30827017969781
5	9	-0.2857142857143
5.3151026533923	8.4249591108801	-0.38240156963578
2.3178923476779	4.1926464382665	0
2.5373292327812	4.4716333182052	-0.48281884804687
2.3342974478463	4.0018571812202	-0.30572640106363
1.9994701911036	4.4258543307655	0
4.8968211033092	12.507755029533	0
5	12	-0.2857142857143
5.2932790228536	12.494788035524	0
0	0	-0.2857142857143
0.54768630893449	0.55020446432687	-0.60775225926193
-0.16846798780902	-0.24002860812406	-0.65332445545953
-0.28063481777066	0.41453578455018	-0.44890469943706
7.7	3.575	0
7.3102059000399	3.7470939102263	0
7.7	3.6732286664853	-0.53772532608145
7.3176226410905	3.2857280588852	0
-0.7	-0.10798167686939	-0.47517111104905
-0.7	-0.57707899562378	-1.1376990549501
-0.7	-0.61986630133594	-0.43486724047509
6.3962361866998	10.611290418241	-1.3182185489848
6.565939673393	9.5694509864085	-0.57379796778735
7.1295911592009	10.496363016677	-0.48219980545192
6.3839624611364	10.341052129245	-0.35036617584397
7.7	14.3	-2.5
6.7623683783591	12.987112326146	-2.233077027779
7.7	13.059020885286	-3.3539705522597
7.7	13.327367479896	-2.129915020979
1	6	0
1	6	-0.2857142857143
0.93236760237426	6.49128333619	0
1.3454573625665	6.353105459937	0
2	5	-0.2857142857143
2.1684298754346	4.7403793023811	0
3.0226729813355	8.4836106439452	0
2.5164096947204	8.910651700233	-0.41109082170818
3.4071201441719	8.4167381876838	-0.59109415332551
2.5374808587914	8.1383747261781	-0.35604109466584
6.2778911301719	14.3	-0.61136458754231
6.2225356773765	13.691717475418	0
6.5208076177088	13.495118289851	-0.49928801204061
6.7358646795693	14.3	-0.39005656748015
5.7965188279432	13.281940723964	0
5.5320359851605	12.925291312368	0
5.353113789845	13.264183036004	0
5.5919457801018	13.101154188917	-0.33537516396337
7	10	-0.2857142857143
7	10	0
6.5010306427949	10.010760669106	0
6.8196744207924	9.5136576917357	0
7.7	1.1375	0
7.7	1.6430719769933	-0.42557297445049
7.1939383721229	1.4724531054162	0
7.7	1.625	0
6.3572581294301	1.4772201134971	-0.96507376287322
6.5574763981385	0.84898833643366	-0.48332647821142
6.7774291048203	1.7003141153393	-0.4123635555875
6.1433933962903	1.4220674799247	-0.28622251631329
-0.7	9.1984657118068	-1.9278839451739
0.33291529395702	8.3305676904572	-1.2970017952003
-0.7	8.1442617177323	-1.0898260028896
-0.7	7.644268062563	-2.0766032868031
4.508194357046	8.6258793740749	-0.60770874662543
5.0095189690676	8.5009469809039	0
4.7609249278557	8.7686419230913	0
6.2306672701993	2.67753718	0
6.6360398560532	2.4670661479797	-0.44686919005428
6.4910302172834	2.4939022421641	0
6.1550873755842	2.4572757142813	-0.33684154297057
1	1	0
1	1	-0.2857142857143
1.4901571161019	0.99574153349402	0
1.1736530561382	0.72346383359363	0
2	4	-0.2857142857143
2	4	0
1.6440539242474	4.1532454240512	0
7.7	6.9501255673919	-0.74418826283982
7	7	-0.2857142857143
6.7521552376889	6.497772044976	-0.66059363300197
7.7	6.3887218416049	-0.46884913673037
5.9482896260331	7.5800048202495	0
6	8	-0.2857142857143
6.3095291646476	7.6896230263426	0
6.1432247512519	7.3579252770212	-0.41388970597853
3.501272057481	12.437082442362	0
3.3297831413816	12.805427976196	0
3.6823393063421	12.851671876304	0
1.3671388209093	10.633374397873	-0.4152980605108
0.95248763025238	9.835503527633	-1.7808732395437
2.3518021577517	10.495200039554	-0.50930668321109
1.5373497846005	10.021005779616	-0.41781002197689
6.2054585007625	14.3	-1.3884356875417
6.9442913034148	14.3	-0.89278753613404
1	8	-0.2857142857143
0.54167473049383	7.7707286368021	-0.37916050195481
0.44975345341211	8.3808810318019	-0.31136669048163
1.022076618805	8.4121844676845	-0.45670843222423
0.89173681858685	4.6122796653579	0
1	5	-0.2857142857143
1.2386083631299	4.6841794176855	0
1.3923592539172	4.7130963353432	-0.25978315417498
6.4242299347383	5.6840176993625	-0.35514079575845
6	5	-0.2857142857143
6.3424541740313	5.2754910113697	0
6.0447933133998	5.5049876953384	0
5	2	0
5	2	-0.2857142857143
5.5190673049038	1.9208326821789	0
5.2306444928855	1.6547875838902	0
5	13	-0.2857142857143
5.257359886178	13.540476325965	-0.63012071696907
0	6	0
0	6	-0.2857142857143
0.066757795936057	6.5008369551487	0
0.29243888553297	6.1743316976873	0
7	9	-0.2857142857143
6.5033796411008	8.9981073418213	0
6.5607922823332	8.4440251373986	-0.63122800754088
6.811726958696	8.7028726276344	0
7	5	0
7	5	-0.2857142857143
6.4986646723997	4.9192017057136	0
6.7141996182955	5.3303468264748	0
7.7	9.5988491781319	-7.4736716195817
3.1507199964473	10.394874003632	-10
4.8663216648816	7.3792654266676	-10
5.1015502438684	11.553440122249	-6.405163284031
7	7	0
6.9589015254993	7.4884372736447	0
6.761634669635	7.2408783569561	0
6.0574437090791	0.20878539066113	-1.8779478182653
4.9838025543493	-1.3	-2.1179854334408
6.0308685444023	-1.3	-3.5425074203685
6.440522236286	-1.3	-2.0103523001383
3	2	0
3	2	-0.2857142857143
3.0105846506	1.4855923993349	0
2.6480485575569	1.6700894103009	0
5.0527203000088	13.535479310798	-1.5373151531841
5.0246691847863	14.3	-1.036131499603
4.1300067609037	14.3	-1.2024507502556
4.4744197407865	13.547407617085	-0.63586628370479
2.5813517996865	9.6286485974984	-1.0236151505326
2.2955236368793	9.5881134365907	-0.29154811067367
3	10	-0.2857142857143
6.4248505083522	12.522044346884	-0.42559946143008
6.465073985677	12.51782996062	0
6.1644652963082	12.36965297069	0
6.3832046574853	12.135664356038	0
2.9908655166747	12.498069465114	0
1.984703560175	7.5906357794687	-0.50777967523709
1.0508409188237	7.354634772545	-0.95680796450018
1.4515039911109	6.5829264157992	-0.56173008002516
1.3866216751759	7.5118935788728	-0.35488362790971
2.45	14.3	0
2.2168273415577	13.627179222019	0
2.4554693735383	13.497784276817	-0.39727655195048
3.032551925238	13.762466584345	0
6	11	-0.2857142857143
6	11	0
6.4843452951013	10.966514281357	0
6.2440599782187	11.234710090977	0
5.5	-0.5576923076923	0
5.247952850371	-0.29481663567353	0
5.5452342683804	-0.096294524539033	-0.49623355575102
5.1016398375367	-0.61489919294387	-0.38960315167385
2.3232496140345	4.0110297188843	-1.3835068702753
1.6586320571652	5.8268322896535	-1.5213554090482
0.71002746520551	3.976198472286	-1.505315421377
1.3296414347056	4.9089994064226	-0.82629172929831
5.6	14.3	0
4.6510156691765	14.3	-0.56274723813486
-0.090060726359069	5.5363033123106	-0.44581840212762
0	5	-0.2857142857143
-0.38456492153953	5.1805342841446	0
-0.7	5.0205501441189	-0.32507149572551
3	13	-0.2857142857143
5.1848675157348	3.2965660830064	0
5.4046165570399	2.9501485228537	-0.43988698776777
5.486289771732	3.4981838484395	0
5.4682750147717	3.0660382780841	0
0	8	0
0	8	-0.2857142857143
0.5178658825659	8.020802151125	0
0.25864598874121	7.6639427314904	0
6.7098208972434	7.2950601162224	-1.3269022195366
7.7	7.949747446039	-0.91833665053736
7.1577047253729	7.4844276204668	-0.64272934527953
4.5892004575887	3.5369189576522	-0.55981654583505
4.4420188491858	3.4660037233365	0
4.711527897636	3.7375259681419	0
4.3494632088922	3.8023533541114	0
4	6	-0.2857142857143
4	6	0
3.9913416390327	5.4988534517732	0
4.5093195747582	5.724109532591	0
1.4	14.3	0
1.5	13.55769230769	0
0.89284349994875	13.714781914708	0
1.2292962491126	13.670420041977	-0.37788942865261
4	9	-0.2857142857143
4	9	0
4.5502440226935	9.051086551406	0
4.2963154051231	9.3907765114078	0
4.5321110402369	7.5028925212181	-0.60552533206341
3.5085861108931	7.3893844432383	-0.64873189634878
4.0050480592533	7.4977657988521	0
4	8	-0.2857142857143
5.8961095330637	-1.3	-1.0125722125019
4.8982045728458	-1.3	-0.82217786726149
5.2296982103621	-0.31621891710017	-1.0679345669244
4.9010483556055	1.478997710586	0
4.5631533182214	1.9074133665015	-0.41231302454656
5.0320642355688	1.4518180616801	-0.36509190625555
3.5357179442866	0.46434418042464	-0.60031716899974
3.9407498163335	-0.4411178910574	-1.1087857494349
3.2826824657074	-0.47747544834602	-0.50866572047373
2.802260468126	-0.22902113419037	-1.4542342115515
1	13	0
1	13	-0.2857142857143
1.1191337005982	13.329221525091	0
1.4884720276527	13.02962190928	0
-0.21681247778723	8.5792000107362	0
-0.35118339610893	9.0917088673227	0
-0.7	9.0968147603684	-0.35256881313688
-0.7	8.9375	0
0.51662331659314	-0.40156299802931	-0.67799391089861
0.13474046208011	-1.3	-0.85683826964205
-0.16941603187845	-0.57512411281067	-1.4019543009948
6	13	-0.2857142857143
6	13	0
5.8068477026831	12.499749736815	0
6.1890713266052	12.67695534294	0
2.5984255358496	5.4578875982232	-0.67264342113488
2.2172109403706	5.4325217687574	0
2.4824672258873	4.9705265694472	0
2.6598112065826	5.3330483814808	0
-0.7	0.5146532048839	-0.51418317722913
-0.7	1.0492756199945	-0.88024243711367
-0.37698118088761	0.89350663208132	-0.33360419980628
-0.25096134668857	0.95145340086689	-0.90448711690516
6	2	-0.2857142857143
5.4002158317804	1.7678073061348	-0.50898482673054
5.8183999242367	2.5164331321023	-1.0840550371572
-0.13917028340788	5.5182991349521	0
0.31578338747353	5.7567158690792	0
6	12	0
6	12	-0.2857142857143
5.513035862904	11.994753403328	0
1.5285536174902	4.2362319729344	-0.43851980589517
0.57100063419133	12.499134596467	-0.56842257570583
1.2565986295401	13.42724014175	-1.149557674079
1.4486633887383	12.69302170761	-0.31714242590465
6.65	-1.3	0
6.903739311401	-1.3	-1.0953527719967
6.3980205255852	-0.38130956989248	-0.5855507841991
7.2175457166608	-0.5710098692386	-0.51938212652516
3	7	-0.2857142857143
3.5055774955602	6.7395375676091	-1.4094768265058
2.383927159844	7.4535505157878	-1.0620490471275
1	4	-0.2857142857143
1	4	0
1.2222221827385	4.2954008280594	0
0.82345085295407	4.2815033897546	0
5.6	-1.3	0
5.790373644402	-0.65252487431205	-0.38521635467031
[...]
CELL_DATA 5483
SCALARS Coverage double 1
LOOKUP_TABLE default
1.4974806338246 0.73540755907022 1.3924502544033 1.5615349957215 1.4355043409616 0.86269834427628 1.1291758807116 0.65033002408535 1.0981386832783 0.19927682202589 1.8292189619679 1.6490035221269 1.4869200901284 0.71195732792852 1.2431703675826 1.7785856641176 0.96597731076138 1.1303495544463 0.59826451465886 1.6390709356057 1.4321018281721 1.6939543967613 1.8770766098462 1.0509227714991 1.5789085597005 1.3856117307622 1.2392307177049 0.57233170592243 1.3047529965757 1.6384530446035 1.5467615763683 1.7666348722676 1.2008786723123 1.7789098647124 1.4687806363108 1.7648833139056 -0.39454385989832 1.78775236779 0.24160357098388 1.790024424921 0.61031385984263 1.3712674045879 1.3811005031199 1.4563363579541 1.2692898085772 0.88988441316291 1.8171137071116 1.0287384445019 0.93109005998148 0.55849955725167 0.67785833644221 1.2627966892423 1.3738657508923 1.5100551925299 1.3737163066091 0.94099332858062 1.4353547992636 1.8335094816576 0.8555324168993 1.8257334300001 1.5083717054731 0.6050970341725 1.4182567186786 1.5180944597274 0.70811755683219 1.5779898515623 1.1325175923303 0.62162566576434 1.7002068597839 1.5568405096371 0.81734205904988 1.0769681232277 1.7649425276333 1.6844436105999 1.5266567507997 1.0313463834585 0.61448551277741 1.2563846514481 1.9250479658545 0.62728732943804 1.1530878481249 0.79023497242921 1.4957776276073 1.2128173253674 1.4985755803885 0.97801925687127 0.59749484526579 1.8564383910158 1.7587221711806 1.5509142090543 1.1555883766564 1.1970618967165 1.2575229187615 1.2144969060306 1.4556961886655 1.6114912407742 1.5827420411204 0.96747816900969 1.6321575068824 1.655938378744 1.2932836133991 1.8013773141776 0.94070542181432 1.5892216851422 1.0787940617173 1.5302855934955 0.30349285774331 1.1121462351587 1.7808121038233 1.8698081839241 1.5352039550554 1.2852883918526 1.4643645085282 1.4024774054492 1.1540054573751 0.73749986494118 0.93857042797321 1.0127289598836 1.5579966257004 1.1935703479632 0.95007374567343 1.60430308191 1.2358365023688 0.41605082952068 1.230451529884 1.775124907924 1.0465233995829 1.8004657822838 1.3281915674083 1.5196352306042 1.4911745009816 -0.22830055526659 1.0557165102283 1.3936758338404 0.8056704330577 1.5802309688938 -0.42171829159951 1.3416483796345 1.3292425707464 1.8565471058319 0.54607165236779 0.14579698170154 1.7716018380491 1.6800152785737 1.4993476350043 1.4164867204354 0.85723214681056 0.66038248321103 0.90395874866199 0.5891889080212 0.36405899853568 1.8497122364799 0.8070290605885 1.1968929826326 1.3780876376579 1.6360772098725 1.447136584559 1.0505216480581 1.7289647900557 0.77610705969457 1.4310396981102 0.71706384179449 0.92488351591091 1.5728954796879 1.8595482904965 1.6361638422566 0.58771850405221 1.7953434256013 1.423286000546 1.8005448577327 1.5843381691615 1.1719865262692 1.2508433858974 1.8249482686619 -0.096700194179739 1.8594058203164 1.9017415545204 1.7588649334731 1.6885934086243 0.16307176356345 1.5446211372471 0.38744661530049 1.1133827456514 -0.10010670568084 1.2188694325118 1.8474471432523 1.4002195081715 1.5585418127608 1.8205642676614 1.325761129522 1.8440357724646 1.31921027503 0.73239507261725 1.5897739088175 1.2572376254975 1.0656746000588 1.6401729791334 1.5317795145159 1.3949796864339 1.8579721058254 0.51886233433578 1.894963391442 1.4105895876109 1.4926342093251 1.9105407614743 1.6545520942794 1.7135590361918 1.4619932428816 1.0663419126808 -0.45704339225419 1.3766839872247 1.0700120882607 1.1723356535023 1.8832933728808 1.8508463991104 1.8612743950654 1.8469942679595 1.5960839461307 0.85300129702097 0.84650059131385 1.3704843967149 1.7189530534651 0.54207694378091 1.8674171285703 0.71396786078504 1.6821824042575 1.531985891806 0.85154122390141 1.921642674507 1.1503647109568 0.91748808736882 0.87755680174985 -0.15856741966528 1.8554737795449 1.4363341157949 1.1581909233549 0.54803647055195 1.7453285525434 1.5549970406998 1.5324382858842 1.7656975334942 0.69723097565637 1.5838048404355 0.95472566595568 1.5698973970701 1.8416297961432 1.3206007605563 1.5267454968386 0.51137293314036 1.6056616231235 0.68209043116604 1.6781277689308 0.45136895733136 0.20554511355097 0.0061813686097507 0.44510377648303 0.87135819107529 1.8582838821669 1.3063014825194 1.8703907712799 1.0365286943499 1.0475652619909 1.4080047356097 1.3447233294158 1.7506651185773 1.8273443689317 1.4487962930085 1.8580595066004 1.5283226057272 0.71732061100103 1.8525735755221 1.8886061710887 1.5539951241102 1.4184450962986 1.8407029306793 1.5484417153921 1.8510435265855 1.5764985544061 1.5641013607354 1.7247773058152 1.6348857710679 1.9277114861488 1.425610688516 0.52574036262836 0.50046373290402 1.2647007770275 0.95479028244388 1.5844454928906 1.7417831778507 1.3047576208923 1.5306729552724 1.8451025560179 1.7211870630657 0.56136295769211 1.4086854889662 1.6903180448063 0.71907693470073 0.26178440274261 0.83299599566899 0.50010714351526 0.44630287501287 1.5612082701702 1.3971095488821 0.99379908675686 0.8095637953875 1.0974369470141 1.6096340406737 1.3010450588822 1.5296211612318 1.1112328061645 0.73047145835182 1.577364489311 1.2615372608065 1.2513493988873 0.63289056653859 1.1526273845355 1.5154410612953 1.0714915683929 1.4372191507005 1.1517399155131 1.813580110136 1.4945425001056 1.5256276019437 1.4060366943296 1.9062205601119 1.2566434085994 1.6961371501728 1.5411529516412 0.45890157543675 -0.63812489527243 1.6223396593085 1.1964996514897 0.72380780847588 1.5267846952337 1.4508363992468 1.7967110146116 1.872970773752 0.9460066332468 -0.58899810454755 0.84088894134868 1.4111633135899 1.2145657368813 -0.25674873648437 1.0344931681433 1.0480139502167 1.416821333833 0.86813825454994 1.5430638997148 1.3658748974213 1.2355206671169 1.5238166696078 1.7161703014359 1.7945652191085 0.59717104060164 1.8757208066157 0.99414269681448 0.10429270253319 1.3025621890928 1.7023780245279 0.47572137807545 1.3049537533222 1.3657847624039 0.70419818793464 1.3736613576476 1.7422171366612 1.4679125243399 0.86850314553016 1.7696563412315 1.6738360248238 1.1991276013515 1.3167440288957 0.96474166325023 1.466653269957 0.26441427850797 0.57303100324823 1.1385620819551 1.2905814657263 1.518510709052 0.75902171405302 0.32485728435288 1.8261535131297 1.8827039066405 1.901378255269 1.5909809784199 1.3388737396726 1.8536158359581 1.806230583113 0.57369829117933 0.83024225969465 1.5227503139367 0.98992124688782 -0.23359131458804 1.5871353149083 1.4025287760071 1.3694063363377 1.5800103661577 1.6002046646782 1.4631023729179 1.3773258994788 1.5391066969973 1.0439719945584 0.83022134213175 0.82298058806895 1.7549798509741 1.9199172980372 1.2319256205946 1.3410014813056 1.716596939252 1.8454589423979 1.274689220847 1.4306835816665 1.5071919221257 0.64700072324248 1.8158615998688 1.4056051394148 1.4396697135535 0.92240751379835 1.5510532624219 1.8404283243227 -0.40220957762522 1.549080952399 1.5192554058772 0.52008076227047 1.3869550777017 1.3510273747035 1.0366366362002 0.19249939895015 0.11356083292229 1.5793392000008 0.30065986222121 1.6901668527476 1.2621364667406 1.8166022294399 0.87345683509754 1.7417438577534 1.4023669683505 1.7328426956515 1.7954183745787 1.4013921556616 1.1955273343512 1.4232597429794 1.5638111273538 1.2658717730775 1.7312235150362 1.8253353566075 1.5586209386229 1.131141506717 1.2712350012727 1.1964059791156 1.2354385146778 0.90188145105584 0.69264548114544 1.4489409902452 1.5179496254132 1.6041523640516 1.4552553536469 1.8793924797735 1.3719696447088 1.6888309510014 1.490861867275 1.8827981093817 1.2350412092465 0.98632060130239 1.589931880363 1.9106624801386 1.488357979586 0.86495089598882 1.3414228657329 -0.25391052964199 1.8424935403738 0.44741011525624 1.7943009888885 1.4731252982832 0.22409693249462 1.5548305037995 1.3055551516356 1.0619687866784 1.4934276962838 1.7192565183763 1.8398695499058 1.4280914182045 1.4370307556295 1.8024904575782 1.6299017513562 1.365160060402 0.70109682177052 1.5824643683423 1.5455228876132 1.5225281575064 0.65110721269477 0.43394932818554 1.4286318983921 1.2232522068663 1.4928486788977 0.82640093527858 1.8481037470905 1.4218249537575 0.81086404373857 1.9211043648832 1.4227813618184 1.0419424005914 0.62534462841389 0.8206320268914 0.98089141551711 0.51510282399458 1.696808474854 1.589847348816 -0.031945778654 1.3151551217932 1.1541050791106 1.4427575494526 1.3483939865318 1.5282965882649 1.5054528056994 1.7960056629709 1.0311812744406 1.5805846023129 0.73912852641432 1.0671193732051 1.3784537742975 1.584728298253 1.0908188784358 1.7750932314832 1.6092388349214 1.305411263082 1.5832074020565 1.4265593955958 1.6678406077169 1.560115916903 1.60024325031 1.5619419241749 0.40034341401649 1.3046646919099 1.4247324407844 1.8120812681301 0.76446320566002 1.7869541710339 0.75409198605986 0.88099749551139 1.3262207817599 1.7856104446928 0.85712349163221 -0.70958035361823 1.2541578408657 1.5265251399113 1.2619272049786 1.6889921384719 1.4635101609851 0.64999451051981 0.81039918663602 1.8208406480668 0.92171900102267 1.5836122873964 0.83202794321109 0.59341898852064 1.3564129813753 0.56217962431389 1.554728847812 1.5847084357458 1.5246854644746 0.015960545323365 1.1031338296384 1.6932443638457 1.1918298426547 1.5215880613458 1.42317979173 1.3886510917392 1.4501748777855 1.0575213893911 1.5849500396086 1.5401522022695 1.0129016187444 1.0817765452531 0.23500711275934 1.8809879865036 0.91263983653842 0.32378627608108 1.7385732728952 1.3254376365991 1.6158595431785 1.691070341936 1.6754815829174 0.63522232395439 0.84403442325027 1.588574818893 1.3834482644361 1.6551250150286 1.1359428975261 1.4758089542298 0.75422933309954 1.0519742852404 0.82655514136367 1.5040952142533 1.231796440545 0.66661386903483 1.859610297194 1.6415077693797 -0.57082650862484 0.11718032209128 0.88566571195305 1.6214271723567 1.5553531874283 1.5357355026356 1.8341317720415 1.086730100989 1.42945930653 0.5961449824065 1.6764502316209 0.34857642326388 1.6696121613731 1.0965031365857 1.5723497276194 0.89681159296762 1.5873069033495 1.5011148849155 1.3487420163165 1.4271853382228 0.34141247886916 1.8645297997845 1.1354690981419 1.495847362389 0.43923769640293 1.4485199048166 1.5617913504987 0.94222358328295 1.3394912714068 0.86205352278176 1.6898756365417 1.0743404629687 1.468983858646 1.3776072900313 1.2597286186978 1.8596310096872 0.67306023372412 0.39527835093973 -0.56386245280911 1.7737847937061 1.1134622417055 1.0508077909623 0.74853370642252 1.8012584097763 -0.22049685616366 1.6211436260805 1.5648105596787 1.0843341073017 1.0269242361441 1.7732690370195 1.8601969656249 1.4709905932664 1.5189576024315 1.7895170441852 1.685292305932 1.8424894602248 0.7280947205529 1.3405888720195 1.8442049961596 2.0396034928747 0.67177908328822 1.4327019056542 1.355919007957 1.4596822255282 1.5625283157907 1.5929438686946 0.60532718274743 1.7352059000347 0.67101776750497 1.1229089446641 1.4726928850915 1.9157431409888 1.110982298131 1.4117921161877 0.094095658202991 1.6750837429 1.6498405127996 1.1284617052671 0.26100763747672 1.3967584125998 0.6997935255559 1.6619689545365 1.1582985111566 1.5196882598131 -0.38235924021768 1.4321100112113 0.65369424488804 0.75492078029828 1.8593884546851 1.2721397394096 1.3004061816761 1.5340189125622 0.44462239743624 1.8682019357375 1.8518319408988 1.5122839022358 1.8239744864498 0.64489489510598 1.3567787159495 1.2937516847757 1.5166773504138 1.0231316073703 1.7868281879797 0.49249280943175 1.2596399922986 1.3777728670223 1.1748621417914 0.79046435386516 1.7715113828302 1.5475480240477 1.3317129592031 1.3552543499685 0.69399616939879 1.3847497924622 -0.43733882939244 1.5730784060893 1.000333000572 -0.30919284407665 0.24175902201136 1.5341569910701 1.6708750545881 1.1171034207421 1.3698612997065 1.8516504118206 1.5238940206795 1.064284851886 1.6140403053858 0.91356542049846 1.1628845814 1.4404029597237 0.96184050993048 0.32996248553068 1.2545539753346 1.4489247777986 1.8533092637633 0.7428441665452 1.6487966583695 1.5262933166113 1.4428924842509 1.5625822214367 1.5835827042387 0.18220243057511 0.97943079301578 1.3024058823883 1.0183504034654 1.2323592590177 1.119070586897 1.7643534817294 1.0395723137584 1.2369053571896 1.4521945607201 1.7748161164866 1.7338607174426 1.7350664027935 0.6234940547173 1.8640964484712 1.4643923174572 0.74044241402532 1.1864361918713 1.4855302150924 1.4139643515552 1.0948052735976 0.82763221517685 1.4450320402773 1.5320067225706 1.9150891844284 1.4216385328184 1.295956628545 0.77029987524718 1.3994361221774 1.552697103415 1.5702844597468 1.8143105278739 1.4056746194189 1.4927369289308 1.0824596962789 1.536632732175 1.5869542635558 0.81675384431524 1.8849144825253 1.3874746886981 0.55245011772312 1.5947998414113 0.86836780621353 1.5112170420314 1.2072914199029 1.7190841853374 1.1978558482914 1.1997201023488 1.5664179018654 1.1342928780012 1.6397654613368 1.8501847237505 1.3163606935265 1.6305678356451 1.4474925179728 0.46754697447364 0.98355183284508 1.7792899432687 1.7078261098253 0.098291984599476 1.5885272677139 -0.5792377258695 1.3828265004271 1.7208628482705 1.2928648473134 0.60224136819057 1.7660582202163 -0.72515039895798 1.7210237710546 1.3189257763408 1.4309667537663 0.72126666826725 1.1637246703841 1.3798515761074 1.0321517870496 1.4519145072961 1.0641213550365 1.5669586902785 0.76215623437151 1.4099072261565 1.5062945826268 1.2071175621421 1.322974606729 1.5748487457527 1.5545111575884 1.4555309029099 1.0801257949694 0.61498429511283 0.74824779496228 0.60429799581085 1.5254459817677 1.5638523256248 1.5768409815232 1.0661089493781 1.6744976797451 1.4920838129605 1.0900246442079 1.581881224924 1.4411762604935 1.5850898763141 0.49811598371416 0.95943667303239 1.5946804774731 1.2639924104165 0.89038539719048 1.2877430576032 1.3431755914564 1.0485831187736 1.2745194322925 1.5223840604031 1.492123069295 1.1921955758752 1.858944175027 1.8182521675387 1.0712319484188 1.2887102900529 0.71038424217653 1.3306285261287 0.66187364477242 1.6381145427496 -0.22512967507327 0.65680075564612 1.5313396807621 -0.3003997799312 1.6505608977664 0.68285959908457 1.2785456397125 1.3037966916107 1.4178714986018 0.81561163339358 1.3965710268697 0.44150397298019 1.2419878015391 1.5684798887009 1.2663224578352 1.5319879890732 1.4840953527796 0.93991602922086 0.78913541406207 0.39120186654578 0.77613170009738 0.51219410301835 1.8224800763476 0.43637211328558 0.91847219047629 1.5175294862063 1.2900349591918 1.5244128446427 1.6584113648015 1.4664885057282 1.5742394496255 1.2238246038108 1.3783427320208 1.5101591949264 1.5296841134628 1.686989684018 0.54068782242514 1.561900806082 1.5555088389222 1.1587286275079 1.1398123563751 1.6441027883408 1.8874729350718 1.5968334125687 1.7155682849175 0.65255110143359 1.2326945490092 1.807454179289 1.4645539866772 1.2801180552188 1.6608254854652 1.0044719906571 1.3691732341628 0.39358602765404 1.7438337215823 1.2395175803997 0.66798643622332 1.4586239708809 1.5070252525566 1.4128260187473 -0.18134595695946 1.2775633343364 1.5737041592529 1.8583648812533 0.31506336124828 1.7665486052058 0.79961090973613 0.20251649055259 1.1613470093537 -0.4993244046498 1.6921587939123 1.8975395942313 1.4127019827889 0.99518528442252 1.499785637196 1.7036519526807 0.37335488572399 1.5758203275364 1.4809544785518 0.20679179911207 1.4328667496042 1.3396931589182 1.6334116704181 0.94494147381705 0.51560852582455 1.4257981820211 0.60303228010419 1.2586032509146 1.8597833979631 1.3524375129206 1.4985533136086 1.2869892844454 1.5985861852319 0.32863360132825 0.37607076881861 0.9662032588948 1.9992568209773 1.1075610836835 0.60732902857862 1.5342468896106 1.5671612521062 1.0451058040905 1.3599358574795 1.2299782719442 1.3177771873917 1.5563581074838 1.4814098177265 0.73214663458272 1.2943566510021 1.3320843139829 1.5943119220014 1.8707284966261 0.58685901038968 0.84453566054531 0.46665247022951 1.5048239162423 1.3181201521012 0.7780570268711 0.98009962640027 1.7896169937822 0.48360356177595 1.1853064821891 1.0493442995507 1.2816385567039 1.7285426382793 1.2332724598921 1.1456144704682 1.7896664117659 1.871921910094 1.5147013089678 1.7299931753804 1.585830339034 1.2232859785726 0.78559261725952 0.73824742278496 1.4877294798388 1.05685984141 1.1765718490665 1.4806754854823 0.73617773123489 1.6239366253004 -0.16070963708317 1.8063639467882 1.5968314173924 1.3562490673268 0.50759064363716 0.57373978445718 1.7417575659509 -0.041638179581353 1.1388403354348 1.2452649593768 0.5921599557959 1.1396229850713 1.8230533326286 1.8167211744663 1.478650692895 0.66270764233753 1.6993918665483 1.7487276257865 0.30201211166771 0.89529947584931 1.6276810452591 1.0026804558571 1.5501024378198 1.5366320040391 0.91637263010487 1.3736223327219 1.2121454676066 0.71884912216538 0.63434429702717 0.60379492274294 1.790015787972 1.8306154443749 2.474530072134 1.5450566403364 0.86677297669969 1.32328555071 1.4883744608242 0.92145858707169 1.4900096132709 1.7049454694696 0.49259604793893 1.7363665444431 0.85381366387 1.7301886431314 1.5088128085712 0.74042887732875 1.0863519166815 1.4993337430149 1.396362362531 1.2333275518809 0.87669682907994 1.6256118804238 1.8037032058 0.8453826343376 1.6813629356498 1.7341173826418 0.42983417116498 1.974843870226 1.4088302217773 1.1743654469759 1.0373449068188 1.1019921150792 1.5555795440209 1.4699636579446 1.7025012599364 0.87072045860613 1.809919745222 1.2669949266085 1.4216956034973 1.3290139163078 1.0277201767212 0.63909978686837 1.8829996719264 1.8067341892015 1.4325208981749 1.9068336712929 1.0459229787432 1.0236125674786 1.4999080677614 1.487802861071 1.3439386639552 1.349807333688 1.4913341893642 1.0441549935692 1.7820895374205 1.8500997122734 1.4029129029311 1.0285400127836 0.7894916908718 1.4163015855506 1.2619078066225 0.30627519520269 1.5585389063649 1.7113647101256 1.2801081891891 1.8624896634677 1.3470340467394 1.0515599961409 1.8644310774418 1.4876104358988 0.57253129749171 0.71717071538662 1.2843119195926 1.8422385412917 1.1733110527258 1.0085254987493 1.4464281162544 1.3081322182494 1.7152135836744 1.5508645274455 1.2091454165739 1.302905221587 1.7161670811649 0.86606603728033 1.6001795265808 1.6116339606775 1.8730393919722 1.4628679934173 1.2707578716606 1.7592639811787 1.7358739625996 1.8071007624294 1.5161740739264 1.4523357006929 1.4616432909701 1.5933737392017 1.4563527814495 0.91922507427312 0.024631547455915 0.87429105696803 0.76989548315857 0.74989581856304 1.5775701481472 1.2243690133044 1.7628498127348 1.2339224347379 1.5172073639265 1.2522636971255 0.59114315471707 1.7641608297386 1.5357261420916 1.6340625008886 -0.40495246055632 1.8347260114303 1.6010099990275 1.0199752345667 1.8115227430447 1.181628965707 0.90514892286295 1.5602613622514 1.286317230918 0.58328001316622 1.4559979910761 1.1909494716925 1.0835210746067 1.7644863164622 0.93315173698102 1.5793536929983 1.3064545150415 1.3260006996218 0.97307402907349 1.7769768305102 0.19823916137376 0.67862740886527 -0.52665110658366 1.3690846853169 1.411900697445 0.78121797052913 1.0141763285034 1.5822001013503 1.6574700019616 1.3840403117101 1.6105633298989 0.87703698159432 0.8514363347353 1.8100794732137 1.7442484963082 1.4855234422852 1.5622888709269 1.4425155544288 1.4083896170414 0.58524078193802 1.3720260123062 1.6639511919005 -0.16681057429581 1.2462483828907 1.8657220819733 1.4318519488032 1.3937067840161 1.244311178349 0.85887853907962 0.43110632443419 1.544896316918 0.73058305346661 1.3775380048957 1.3778739776088 1.5280796418729 1.5885895074403 1.7852752502916 1.8204298677506 0.29449547663301 1.4549007358473 1.0909704530806 0.42510818811032 1.8060718479931 -0.51820771331911 0.54418824985653 1.2553047253924 1.733777483313 0.86416582234146 1.482886413401 0.53921105948759 1.4256331276551 1.0136675689595 1.2735841626772 0.95794449058162 1.0188037275596 1.8708841263498 1.4302413961172 0.73169625120303 -0.11801757325199 1.0398591889565 1.3058144445365 1.5342668650341 1.5116620842746 0.94301881201865 1.8327118444664 1.3177272534971 1.4934523057047 1.447450033529 0.71404480138798 1.5447004038063 1.499