# vtk DataFile Version 3.0
d-2__ created by libgimli-v1.5.0-1-g5991b6ac
ASCII
DATASET UNSTRUCTURED_GRID
POINTS 803 double
8.3333333333333	0	0
8.5	-0.29429712828708	0
8.6666666666667	0	0
21.166666666667	-0.35154628884587	0
21.333333333333	0	0
21	0	0
-0.13949540192174	-0.65832226163824	0
0.26765699968102	-1.1941152153012	0
0.50098922076846	-0.451860121227	0
11.833333333333	-0.28867513459481	0
11.666666666667	-0.84084908820295	0
12	-0.57735026571174	0
-1	0	0
-0.82347194173878	-1.6006755924119	0
21.666666666667	0	0
21.5	-0.55217395360815	0
1.1666666666667	-0.35154628884586	0
1.3333333333333	0	0
1	0	0
1.5	-0.55217395360814	0
23.61842901153	-0.60378553647188	0
24.166666666667	-0.55217395360814	0
23.833333333333	-0.35154628884586	0
1.6666666666667	0	0
8.1666666666667	-0.35154628884586	0
1.8333333333333	-0.35154628884586	0
2	0	0
4.8333333333333	-0.35154628884586	0
5.1666666666667	-0.55217395360814	0
5	0	0
2.6666666666667	0	0
2.3333333333333	0	0
2.5	-0.35154628884586	0
2.1666666666667	-0.29429712828708	0
8.4079889429861	-0.75760412093209	0
9.0144333430414	-1.1439190584088	0
8.8333333333333	-0.55217395360814	0
13	0	0
13.166666666667	-0.29429712828707	0
13.333333333333	0	0
3.1666666666667	-0.35154628884586	0
3.5	-0.55217395360814	0
3.3333333333333	0	0
16	0	0
16.166666666667	-0.29429712828708	0
16.333333333333	0	0
3.6666666666667	0	0
3.8333333333333	-0.29429712828707	0
4	0	0
4.3333333333333	0	0
4.1666666666667	-0.35154628884586	0
27	0	0
26.833333333333	-0.35154628884586	0
27.166666666667	-0.55217395360814	0
3	0	0
16.5	-0.35154628884586	0
16.666666666667	0	0
2.8333333333333	-0.55217395360814	0
13.5	-0.35154628884586	0
13.666666666667	0	0
4.5	-0.55217395360814	0
4.6666666666667	0	0
3.9253443903472	-0.75760412093208	0
29.833333333333	-0.29429712828707	0
30.166666666667	-0.35154628884587	0
30	0	0
35.905165514021	-0.87509566217462	0
36.166666666667	-0.35154628884586	0
35.661339523067	-0.61041034021497	0
5.5	-0.29429712828708	0
5.8333333333333	-0.35154628884586	0
5.6666666666667	0	0
5.3333333333333	0	0
27.333333333333	0	0
27.5	-0.35154628884586	0
35.833333333333	-0.29429712828708	0
6.1666666666667	-0.55217395360814	0
6.3333333333333	0	0
6	0	0
37	0	0
37.166666666667	-0.35154628884586	0
37.333333333333	0	0
10.741322276319	-0.75760412093209	0
11.175685896383	-1.113902458684	0
11.166666666667	-0.55217395360814	0
6.5	-0.35154628884586	0
30.795730030397	-1.0103532830333	0
31.229185900173	-0.87228466782526	0
31.000045632922	-0.57199295442671	0
31.666666666667	0	0
31.833333333333	-0.55217395360814	0
32	0	0
40	0	0
40.166666666667	-0.35154628884586	0
40.333333333333	0	0
6.8333333333333	-0.29429712828708	0
7.1666666666667	-0.28872883340808	0
7	0	0
7.2211097499487	-1.0538354750778	0
7.0053271435993	-0.61041034021496	0
6.7615011526461	-0.87509566217461	0
9.5	-0.29429712828707	0
9.3333333333333	0	0
9.1666666666667	-0.28872883340808	0
7.3333333333333	0	0
39.666666666667	0	0
39.833333333333	-0.29429712828708	0
13.674580112811	-1.7184248716052	0
14.353791495618	-2.0265268011931	0
13.958469529133	-1.3940906823913	0
7.6666666666667	0	0
7.8333333333333	-0.55217395360814	0
8	0	0
12.994672856401	-0.61041034021496	0
5.5920110570139	-0.75760412093209	0
5.8348685364776	-1.5356869134354	0
9.8333333333333	-0.35154628884586	0
9.5718321806872	-0.87509566217461	0
10.166666666667	-0.55217395360814	0
7.33337923226	-0.57364431858631	0
10.36828810089	-1.6552861219901	0
6.6666666666667	0	0
36.666666666667	0	0
36.833333333333	-0.29429712828708	0
37.5	-0.55217395360814	0
24.333333333333	0	0
24	0	0
12.503171480364	-0.86507900392268	0
12.328351644367	-1.416191408927	0
12.778890250051	-1.0538354750778	0
11.5	-0.28867513459481	0
19.666666666667	0	0
19.833333333333	-0.35154628884586	0
20	0	0
9.6666666666667	0	0
20.5	-0.28872883340808	0
20.666666666667	0	0
20.333333333333	0	0
20.905165514021	-0.87509566217461	0
10.5	-0.35154628884586	0
10.333333333333	0	0
9.3280061897341	-0.61041034021496	0
10.833333333333	-0.29429712828707	0
10.666666666667	0	0
22.833333333333	-0.55217395360814	0
22.5	-0.72876886968591	0
22.915493514149	-1.1101467813362	0
5.2020787936337	-1.0219070688786	0
18.833333333333	-0.29429712828707	0
18.925344390347	-0.75760412093207	0
19.166666666667	-0.35154628884587	0
22.666666666667	0	0
22.5	-0.35154628884586	0
13.833333333333	-0.55217395360814	0
14	0	0
16.833333333333	-0.55217395360814	0
0	0	0
14.166666666667	-0.35154628884586	0
14.333333333333	0	0
14.5	-0.55217395360814	0
14.833333333333	-0.35154628884586	0
14.666666666667	0	0
15	0	0
15.166666666667	-0.55217395360814	0
15.333333333333	0	0
2.0948344859795	-0.87509566217461	0
2.2850956781966	-0.60378553647187	0
12	0	0
11.666666666667	0	0
22.166666666667	-0.95506458788032	0
22.166666666667	-0.55217395360814	0
21.833333333333	-0.7287688696859	0
15.5	-0.35154628884586	0
15.666666666667	0	0
17	0	0
20.833333333333	-0.29429712828707	0
20.661339523067	-0.61041034021495	0
9	0	0
14.166666666667	-0.72876886968591	0
17.333333333333	0	0
17.166666666667	-0.35154628884586	0
18	0	0
17.666666666667	0	0
17.833333333333	-0.55217395360814	0
17.5	-0.29429712828708	0
16.258677723681	-0.75760412093209	0
12.833333333333	-0.28872883340808	0
18.166666666667	-0.35154628884586	0
18.333333333333	0	0
17.407988942986	-0.7576041209321	0
19	0	0
19.333333333333	0	0
18.666666666667	0	0
12.166666666667	-0.28867513459481	0
12.333333333333	0	0
15.833333333333	-0.55217395360814	0
20.166666666667	-0.55217395360814	0
19.5	-0.55217395360815	0
7.5	-0.28867513958836	0
23.5	-0.29429712828708	0
21.833333333333	-0.35154628884586	0
22	0	0
26.592011057014	-0.7576041209321	0
22.333333333333	0	0
23.934922518609	-1.0280995368212	0
25.166666666667	-0.35154628884587	0
25.5	-0.55217395360815	0
25.333333333333	0	0
23.166666666667	-0.35154628884586	0
23	0	0
26.666666666667	0	0
26.5	-0.29429712828708	0
23.666666666667	0	0
23.333333333333	0	0
26.166666666667	-0.55217395360814	0
26.333333333333	0	0
26	0	0
24.761501152646	-0.87509566217461	0
24.951762344863	-0.60378553647187	0
24.5	-0.35154628884586	0
33.5	-0.35154628884586	0
33.238498847354	-0.8750956621746	0
33.833333333333	-0.55217395360815	0
24.666666666667	0	0
28.166666666667	-0.35154628884587	0
28.5	-0.55217395360815	0
28.333333333333	0	0
25	0	0
24.833333333333	-0.29429712828707	0
27.761501152646	-0.87509566217461	0
27.951762344863	-0.60378553647187	0
29.333333333333	0	0
29	0	0
29.166666666667	-0.55217395360814	0
25.833333333333	-0.35154628884586	0
29.947484315848	-0.62869436758688	0
30.409983486194	-0.76921735210505	0
34.166666666667	-0.72876886968591	0
34.166666666667	-0.35154628884586	0
25.666666666667	0	0
35.445556916718	-1.0538354750779	0
35.333287434407	-0.57364431858632	0
29.666666666667	0	0
29.5	-0.28872883340808	0
26.834868536478	-1.5356869134355	0
30.833333333333	-0.28872883340808	0
30.671365010853	-0.57276869068256	0
27.666666666667	0	0
38.204670056311	-1.4270134762662	0
38.601589185276	-1.0280995368212	0
38.094834485979	-0.87509566217463	0
28	0	0
27.833333333333	-0.29429712828707	0
36.662074300781	-0.56642454030296	0
28.666666666667	0	0
31.746636025369	-1.1187108767801	0
28.833333333333	-0.35154628884586	0
33	0	0
33.166666666667	-0.29429712828707	0
33.333333333333	0	0
34.5	-0.55217395360814	0
34.731644951192	-0.92970615345739	0
35.666666666667	0	0
35.5	-0.28872883340809	0
30.333333333333	0	0
31	0	0
31.166666666667	-0.28867513958836	0
31.333333333333	0	0
38.285095678197	-0.60378553647188	0
37.833333333333	-0.35154628884586	0
30.666666666667	0	0
30.5	-0.29429712828708	0
36.5	-0.28872883340808	0
33.666666666667	0	0
36.41952417611	-0.77749898599357	0
38.5	-0.35154628884586	0
38.833333333333	-0.55217395360815	0
38.666666666667	0	0
29.657657699283	-0.83081436360664	0
40.168201869811	-1.5356869134355	0
40.5	-0.55217395360814	0
39.925344390347	-0.75760412093211	0
32.994672856401	-0.61041034021495	0
31.5	-0.35154628884586	0
43	0	0
42.666666666667	0	0
42.833333333333	-0.29429712828707	0
43.404176293252	-0.42323554094762	0
35.88498281448	-1.5034830799843	0
41.166666666667	-0.29429712828708	0
41.074655609653	-0.75760412093211	0
41.5	-0.55217395360814	0
41	0	0
41.333333333333	0	0
34.333333333333	0	0
32.166666666667	-0.35154628884586	0
32.333333333333	0	0
39.5	-0.55217395360814	0
39.333333333333	0	0
36.500673817427	-1.6307728168531	0
40.833333333333	-0.35154628884586	0
34.666666666667	0	0
35.333333333333	0	0
35.166666666667	-0.28867513958836	0
35	0	0
36.333333333333	0	0
36	0	0
12.333333329009	-0.57732068917697	0
37.666666666667	0	0
7.9035368819631	-1.2622568520387	0
28.737635378193	-1.2311528923644	0
29.212976838479	-1.0424777721347	0
28.833333333333	-0.7287688696859	0
12.66662076774	-0.57364431858631	0
38.166666666667	-0.29429712828707	0
38.333333333333	0	0
12.5	-0.28867513958836	0
39	0	0
39.166666666667	-0.35154628884586	0
20.347766676375	-1.1439190584087	0
19.833333333333	-0.7287688696859	0
40.666666666667	0	0
42.5	-0.35154628884586	0
10	0	0
18.5	-0.55217395360815	0
41.666666666667	0	0
23.428167819313	-0.87509566217462	0
42	0	0
42.166666666667	-0.29429712828707	0
42.333333333333	0	0
42.744785246826	-0.77776727251482	0
41.833333333333	-0.35154628884586	0
38	0	0
41.542494325991	-1.1832128457714	0
2.6015891852757	-1.0280995368212	0
13.258353909981	-1.6064355191183	0
4.8333333333333	-0.72876886968591	0
15.5	-0.7287688696859	0
15.8687454603	-1.0219070688786	0
16.501535203144	-1.5356869134354	0
14.833333333333	-0.72876886968591	0
12.666666666667	0	0
17.797921206366	-1.0219070688786	0
18.166666666667	-0.7287688696859	0
36.905165514021	-0.87509566217463	0
32.666666666667	0	0
32.5	-0.55217395360814	0
34.833333333333	-0.28867513459481	0
34.999999995676	-0.57732068917696	0
34	0	0
35.169838147031	-0.8650790039227	0
42.285095678197	-0.60378553647188	0
41.877780449001	-0.80261564071807	0
13.238498847354	-0.87509566217461	0
11.333333333333	0	0
11.697267761921	-1.4738194081615	0
12.166692603518	-0.86967323340335	0
3.1666666666667	-0.72876886968591	0
11	0	0
18.535412126967	-1.0219070688787	0
25.833333333333	-0.7287688696859	0
25.268255851942	-1.0280995368211	0
28.268255851942	-1.0280995368211	0
[...]
CELL_DATA 1424
SCALARS Coverage double 1
LOOKUP_TABLE default
2.8501369995608 3.1073836824886 2.0188222412785 2.5827671125611 1.8079045617327 2.9688040432678 2.8146718989579 2.3043237159148 2.7271392431677 2.5912779357157 2.8004553492315 2.4038031931379 2.8400984368645 2.6344954980163 2.6733807042618 2.5968611468584 2.4679496280479 3.2364651065177 2.6010897502884 3.2195008824496 3.2644395798584 3.2345283585378 2.9240487820134 2.9571933907307 2.9420801088083 2.9370807100274 2.941557735006 2.8515381273018 2.5217327609818 2.922183266041 2.9846045145115 2.6401201580935 2.7490294654996 2.9569648135706 2.8692752541287 2.7258585168867 2.9607420713558 3.3114642090227 2.4857458901909 2.7051155463203 2.6412636426236 3.018340199674 3.1413097785136 3.2493191130282 2.8128339880639 2.4482681308541 2.8453701378559 3.2722964120202 3.2627195438008 2.1466098257791 2.9695648107339 3.0502117827232 2.6898495679197 2.3598223844922 2.7883269663983 2.6187442129267 2.4938740012445 2.4225606747702 2.8652130529055 2.9323795381029 3.3256427338759 2.8539391903222 3.1176325480279 2.3611248466913 2.6006189066181 3.0804545835145 2.9778217402012 2.896444313489 2.6479092797117 2.7707259320897 2.9140203002893 2.6987984880437 2.8068788095047 2.5865833356426 2.4006511922607 2.7177565835167 2.8112738998364 2.721477732167 2.4394373336724 3.0038595151098 2.7470893914415 2.5742324195418 2.7120950477207 3.0721144146292 2.5831115774082 2.7579111292251 3.0121720047289 2.8522005770095 2.8311408847261 2.3191355264959 2.7676177803784 2.4147966786399 3.057342625454 2.6247869673404 2.5033845173088 2.9313962736704 2.3493114177682 3.0219782744079 2.7214833158217 3.0263131814668 2.6298403465253 3.0723918098268 2.6438451407439 3.0024560951636 2.8221256867891 2.6892998977996 2.7996027446118 2.7436211718265 2.8228370108958 3.0282026698922 2.6292624759868 3.22493736443 3.2639361020453 3.0541033652571 2.6299241169238 2.8519519662882 3.145110826089 2.7678359920901 3.1472644398368 2.8645949921676 2.7351750816006 2.8642262398337 2.9258889648046 2.7717502972824 2.7045498689573 3.0606265360065 2.7185139445164 2.7957899837405 2.8952113898198 2.7965786111433 3.3170538333264 2.7254075692955 3.0298134991472 3.2624161566217 2.6293236216615 2.9044784593869 2.8618286834315 2.9398777310368 3.1892797603922 2.8919516408061 3.1640907066781 3.097225812446 2.7124561442574 2.7073522584295 3.0715831477474 2.9292877877302 3.3957653078229 2.9753836828069 2.7348270694965 3.190338969564 2.8331164559142 2.7317283551288 2.9914536897882 3.2127174403372 2.7761933503579 3.1838232665887 2.577802467894 3.0413588375678 2.963992766542 2.8204333378343 2.5709521125304 2.8038451689714 3.0932398661179 2.3203323457406 3.3960320706556 2.9826758304894 2.7401864317999 3.064127089146 2.6047888207477 2.850442944288 3.2177901876142 3.1592995617301 2.9018500085923 3.2025521781021 2.6459821551489 2.8984040404426 2.6505926845411 3.1756244249759 3.2130462490706 3.4028035958127 2.5931394057767 3.0874477314903 2.9549610446898 3.0884978476108 2.9695879920852 2.8709274955503 2.7022785074828 2.7512256711294 2.7243464643646 2.404269597972 2.7649420081724 2.7338790639513 2.8648672652861 2.9171860161511 3.0808245897921 2.2838400734952 2.4311418121866 2.7784509413181 2.4739860042393 2.9788387783715 2.924542569466 2.8295882725358 3.1832325127244 2.8983744792301 2.3133644082463 2.5047947433323 2.6218473524355 3.0450947867735 2.7163332251564 2.9485390277914 3.201127498494 2.9458155481293 2.647849045949 3.1223758902474 2.6413369054781 2.9524118868188 2.7687181973637 2.6784165244638 2.7352335215104 2.4375279671339 2.8540892913417 2.5551280162343 2.5447697365084 2.6488520895967 2.4837659274091 2.8201176801892 2.8257204450582 3.0743209948846 2.8708014705493 2.7256919784553 3.0522646175332 3.1080101148395 2.5384169923835 2.8583238541138 2.5152427787174 2.8719160324291 2.6970546116839 3.2311346644275 2.9130964296802 2.9545350784526 2.8372405665219 2.681367182423 2.7051128790563 2.8627969299542 2.6677727116165 2.9732372387703 2.8504373627703 2.1575458010407 2.7146384408132 2.7393027170449 2.9499191213917 2.5891642797745 2.7066783849926 2.6198077366185 2.769991426429 3.0747368949855 2.6427498484902 2.884692261752 2.3060519629162 2.4633766336356 3.1506124010904 2.3131535281037 2.6286660583532 2.771237187483 2.5690756777454 2.7965701134213 2.5233465120586 2.6031335575806 2.7062819198294 2.2711626235595 2.5414407140498 2.6410523762283 2.5319150555258 2.5454764769535 2.4677476514611 2.6335046541804 2.7448765216154 2.798030702681 2.6192209323346 2.6214495842651 2.7803677283784 3.235259688699 2.8815713071029 2.5256129519637 2.653216562313 2.6331384812201 2.7469716461883 2.694633173581 2.7690855877733 2.8320566947853 2.6701675618155 2.7800641880614 2.7990280753127 3.4124585114394 2.8510771615408 2.8939343557801 2.7373764924577 2.7995500994673 2.8295619640704 3.4093084773943 2.8632840028792 3.0052638478332 2.7397304127596 2.5679411392117 2.9492111031204 2.7586595759716 2.8164248178353 3.4028929214145 2.9333097475699 2.932370721413 2.9233400758506 3.3594633856723 2.6682025016471 2.7868100482058 2.5936643952329 2.3972640659051 2.8966563761182 2.600868979443 2.6767999981184 3.092595502006 2.7021815264127 3.0207916456963 2.8080010767384 2.9958397684004 2.3037468171348 2.4041596077011 2.5682580117575 2.547175897322 2.6377562749169 2.7439285632938 2.5791142324959 2.4958388309055 2.5996937402803 2.8126674843524 2.7689312764106 2.8968089450255 2.3740117498285 2.2563724080674 2.8551215378176 3.2726829403172 2.9621011448689 2.7976039657015 2.6482909084921 2.6662829469535 2.6206105780222 2.7461662585685 2.6601929226336 2.8443009143247 2.6840782605295 2.6656915655611 2.9063805440753 2.5370728049222 2.2766148720681 2.5703180717803 2.5023056324686 2.3398108767976 2.6899939040108 2.6909424093054 2.4061248904145 2.936946387023 2.617715827163 2.4836374137911 2.5475585173764 2.644922253249 2.5592187281106 2.6312903736378 2.4059388003354 2.8483172861545 2.7497717307545 2.9998178043045 2.7012284522321 2.6487636926961 2.6920945431817 2.8796489109878 2.7690179890445 3.0187767587346 2.7328457099603 2.9101066647881 2.8847671811672 2.6648492421362 2.7367243071003 3.0303044082494 3.2182933936216 3.1531218102435 2.5947940964871 2.7623316086349 2.8067235894194 2.867795789216 2.5464403841185 2.7323020440055 2.9031463307056 2.6930212725201 2.6075029520666 2.8060529054514 2.6139558317512 3.4154997069745 2.4862619346694 2.543566241544 2.3712604895975 2.6032222893255 2.2928682717707 2.4609102906219 2.3173196270445 2.3699462330934 2.5514169978404 2.3461530925405 2.3265320039844 2.874924618892 2.4603735394093 2.5309209782361 2.6022496799952 2.6737103419168 2.5579060647458 2.6435989671671 2.5106231219294 2.7106721115201 2.6742158414264 2.2723044830808 2.5092251397535 2.5410475842383 2.384784704268 2.0151194487125 2.530158608879 2.5870927148986 2.760004981902 2.6288205195405 2.7699064385707 2.6428579744079 2.2511948322836 2.7619374890713 2.5882295266062 2.7189095409964 2.5525351914088 2.8646719261175 2.5638796096541 2.8808112667726 2.5793255253104 2.2683691177312 2.2633079410723 2.6811751965755 2.6864274729877 2.7767035925214 2.5600415684446 2.409023141969 2.2176506293776 2.8098533993341 2.6251496822704 2.833867798793 2.6417505945446 2.6809001859973 2.4461042406612 2.4620046646233 1.9144773240639 2.5592107042555 2.4272205200861 2.0499171463379 2.2268537870619 2.4358333017236 2.4754746537744 2.496121983718 2.5468885193338 2.8949696023066 2.45635008116 2.2298566127319 1.9724226908879 2.1564268587746 2.637495180951 2.4127891128683 2.4309533010583 2.102825953798 2.6742963811851 1.8373069751443 2.7315587375477 2.5258827671901 2.5474634635134 2.5001529354208 2.7537902960671 3.2802194557171 2.386506513405 3.0693897432844 2.5278777809252 2.5387200526589 2.5558209055693 2.6154803150648 2.3910219996444 2.6006194749697 2.5311297699111 2.5530161855628 2.2659494458496 2.6389531779871 2.4797488614354 2.6594420109764 2.1064540849168 3.0781896285784 2.542302553853 2.4740273432744 2.3111975525631 2.398351991245 2.534921608235 2.6379655016926 3.0129041899291 1.7699612391114 2.6893639850688 2.6219798882811 2.3551691209718 2.4600891839493 2.0733468736108 2.1816272938663 2.5484681275635 2.2949097032024 1.9045745097209 2.475487868366 2.3814405725969 2.8062619651799 2.1485300740147 2.3478973483322 2.3058308543238 2.3810102860734 2.0624611045835 2.1028955273434 2.4997333216211 2.6506551107526 2.5008520778904 2.4578264297699 2.3007379942262 2.3378682480522 2.0306363111092 2.4800062833206 2.2381275299774 2.2300529659463 2.5039458525118 2.4097492697908 2.5849012945431 2.3835352022093 2.1876785085237 2.5279441750604 1.8639076032549 2.1976176307409 2.4261261118882 1.6570259545688 2.2891131685773 2.2847114764903 2.5381791392648 2.3692932037648 1.8386171707461 2.5511007801715 2.5220442399348 2.5914999185011 2.6065479130775 2.4665610580565 2.3896367246932 2.461143598 2.4460942782269 2.4596497912969 2.1381969748524 2.0382335281536 2.6240998031759 2.5178262830139 2.3482398033473 2.4282010927347 2.3446220131141 2.6696533579178 2.4132677416049 2.2781270855863 2.238864035136 2.2713832776064 2.4021897790069 2.5520666644627 2.9585699074384 2.6132031134078 2.0392470993755 2.4876477456749 2.8274954128485 1.9936865733148 2.4231594085742 2.4248778502861 2.3204672273379 2.3180868967696 2.6325142252318 3.0431695562232 2.4090338061259 2.3555010201482 2.3513980380107 2.39419107509 2.6986210611506 2.4774340616278 2.1934735017263 2.1876046675952 1.7106870464525 2.1303895661142 2.2049589348822 1.7424475503913 2.7557972377071 2.6213034390528 2.35008348737 2.2870168189417 2.6955607464597 2.6119379670583 2.0116467554825 1.3188594562643 2.2817756722336 2.3389048793497 2.1434928020807 2.8223291174828 2.0573550956357 2.0384281850392 2.5406726044025 2.7313349891158 2.4459679358443 2.3364321028922 2.4193040742108 2.3472490798362 2.1931504052356 2.4699380348738 2.1774375855197 2.3445751810809 2.4888219828838 3.1961526195616 2.1669913503326 2.0241720594146 1.9873436379207 2.2058615463915 2.1392388411083 1.9856984801905 2.2043521167775 2.2566188816503 2.3191285656348 2.084959659471 1.9896752065061 2.5007016463538 2.4338219727288 2.5951852121169 2.3153874146501 1.8651276220358 2.4177184846273 1.7167607715708 1.6277753996085 1.9118164818529 2.3466687798278 2.6969584993468 1.9960086792552 2.6955999844219 2.1415096007673 2.159336497709 2.0259523896725 2.2686498435453 2.0339244038272 2.5052508416602 1.9221281506413 2.288096638296 2.1043526697116 1.6924756506112 2.1275223378177 2.1701637315794 2.2853735322295 2.2419057924678 2.3004848453289 2.0973889285055 2.3843661748666 2.7494420863306 2.0749903236219 2.3197028392999 2.2096640324897 2.1642069775289 2.3686983525835 2.1269940644359 2.1539786598316 2.6543557197889 2.4411057517331 2.1569380748328 2.8501124406317 1.574375785302 2.0240375024311 2.682968077078 2.1292352964444 2.3276229046286 1.2851628508113 2.0791895744076 2.746761396296 2.1862908042048 1.8332479787543 1.9648040478865 2.3123225178935 2.1236216389075 1.8848289708943 2.1337840446055 1.9513923362961 2.0827344904198 1.9386403754611 2.3336340371645 2.0949297044576 1.8909819139193 2.1079871134665 2.0921220040632 2.1688423215263 2.0536454255224 2.0818351831018 2.8940708757169 1.9843809401642 2.1686062229389 2.3414843503212 2.1775929310775 2.0310784480664 2.2410195255853 1.77942181677 1.9695556305546 1.8613918790398 1.9233146504466 2.0863547133729 2.6980040044237 2.3203050039725 2.013835960532 1.7750586792511 2.3967394718278 2.0507642121818 1.3525669978441 1.8150971631517 0.59639725499353 0.77187338014863 2.0355921196717 1.9903601663438 1.8719406636064 1.4219941854005 2.1067365626015 0.8827139690314 2.505387924786 2.666897545359 1.9814199674755 1.4658323609728 1.2382254415317 1.8739066269413 2.512054239841 1.6411513003339 1.8005944138523 1.855520273017 2.4539479732773 1.8359417041334 1.8900899221401 2.0247672725679 1.6949078723445 2.1626380296822 1.9283811443396 2.0898764276272 2.0281070317057 2.0688880030565 1.8574064283221 1.6137927275271 1.9979313823655 2.2962781872456 1.5965217448802 2.4661564235306 2.6004926721619 2.4627384516725 1.9022910558537 2.3116229492442 1.6495939590542 1.6089602308199 1.7186258901866 1.6646510410032 1.8949696836466 2.133945164575 2.1711484695955 2.8663387976021 1.7328963536551 1.7169326324379 1.5692891547986 1.6475019263939 2.3915674377681 1.9825209096973 1.7854000360157 1.985472541873 1.7584410965485 1.4085293397674 1.382460063408 1.9892983287721 1.6016619555338 1.5176382496144 1.5964912428685 1.853151842304 2.2570220052315 1.2819961553137 1.9061558440046 1.1920184310283 1.4564764497146 1.6045056251249 1.9674496432471 1.7185030812053 2.243360002253 2.0705458551945 2.0524571201105 2.1441130423932 1.7223863375324 1.9005036523223 1.8823254446815 1.7426584192512 1.8787036956073 1.9688257736969 1.5305357789262 2.043869129393 1.7960119481138 1.6927740629397 1.8366240465948 1.8931411648593 1.8901973746445 1.1815931991827 2.0312345788285 1.6948872448749 1.7908422115048 1.4985139961788 1.8211492519682 1.5290380496192 1.4925853542684 1.6881457649949 1.730452532569 1.5283832629305 1.73329505344 1.6180813943532 1.359498194981 1.497694382628 1.5679711665927 1.2158637019335 1.7279482020889 1.3186676217213 1.7490152931098 1.5560870114061 1.607202140061 1.2940556886259 1.380588055297 0.93893260274169 1.2167174287025 1.4221135922593 1.3142534819501 1.2148620959999 1.5291490954574 1.4274007753473 1.6067335530719 1.1239908133691 1.7670028197195 1.9420282721595 2.0808047055099 1.710873210108 1.4767822478676 1.5417272410512 1.6412716428748 1.4725390560946 1.3635339083377 1.9252349876004 0.97150938388381 1.5227699917247 1.6242506104741 1.8114802937101 1.7139380099459 1.6002850194525 1.4843826477075 1.4607683466082 1.2391102004719 1.1189896056923 1.2922573532823 1.4938297154734 1.3624188403635 1.5029043749893 1.1454639370961 1.8092972525876 1.43841618647 1.737216773189 1.8102159119976 1.3565519812507 1.3402104093837 1.6316393185007 1.6387073032723 1.311523837931 1.4479929751265 1.3638904961588 1.5051003337708 1.3215202230726 0.79260951860992 1.2576812706644 1.5690018117209 1.2811716358865 1.0529022906027 1.4959275530734 1.3444760343392 1.2740673431121 1.1645272901221 1.4941808772826 1.0751056657005 1.2184072103314 1.2475314810748 1.2433010163679 1.0535560440338 1.1690548377877 0.71299769415559 0.9148786553419 1.0575738780989 0.91653925879367 1.2812131699419 1.3576948277353 1.2499080000021 0.99614789108881 0.76313896070591 1.0675019903276 1.1077138729678 1.6479053415116 1.2523598671371 1.1119350216491 0.99134535753582 1.1815294879514 1.021522213549 1.2481083491681 0.45740803042093 1.1257555569587 1.5274634770112 0.92191935162156 1.1140294537046 0.73394499718088 0.80117256374255 1.0279771968983 1.2556074916804 0.89739860786498 0.94393902481868 0.94199900175733 0.64972162787072 0.93091942468665 0.47768851107501 0.41235980614692 0.46766427685121 0.61228096315363 0.79265800434201 0.84426751860622 0.83239456219778 0.72872381197799 0.77739258813951 0.86275191582131 0.86827531193478 0.40708246236786 0.74122955707043 0.94416397254238 1.6497936533731 1.6988544629455 1.1845083973955 1.3753777745204 1.0990738751384 1.2177599299854 1.1785238180408 0.67613797971737 0.78154667763951 0.64081646873144 0.65209893145182 0.65775918308027 0.77040647507328 1.0516020710882 0.67073428167349 0.61528889686588 0.73838365970319 0.83746148585042 0.55419376638869 0.53142909731106 0.77379368355833 1.4412375678607 0.77464994350312 1.4253053311678 1.1695149321588 1.4689639998396 1.5541741213809 1.4226446802443 1.3801879517023 1.1767618650651 1.2940593312706 1.295135520011 0.82596900445 0.67711594938763 0.49319172823313 0.41719796723678 0.41355928530261 0.88536580893982 1.1558574192415 1.0774728284561 1.3893014344653 0.7928003955931 0.8839405444201 0.98202675584679 1.3238816335265 1.0224877775752 1.273055784689 1.1171133792584 0.93087750555065 0.78919552722723 0.70923384501678 0.5378418521769 0.77188365008635 0.44139270436106 1.0614988972048 1.0706496231502 1.4852939114219 1.180277158747 1.2875467318182 1.2675481948221 1.5359800280834 1.0682436539535 0.99793680698641 0.62091823263619 0.95978151059286 0.89333009870441 0.96397840584069 0.93171882880788 1.108002037017 0.51087084629335 0.62584712458898 0.69845933398682 0.56463701509606 0.80370679228681 0.46748822393879 0.55818828702928 0.83189014765737 0.92474342324196 1.0704797929706 0.67597638461763 1.1857441240004 0.75572506009947 1.3741104958756 1.0031148009936 0.76952710039516 1.150221117869 0.94138239491782 1.1030622638752 1.0452979107557 0.4857052820075 0.39577592706114 1.0519643892094 0.69916443090047 0.75141092858294 0.63523213745998 0.67614675324459 1.1433098907674 0.51690205014459 0.67154205097173 0.85582126347938 0.72833405879403 0.99167332441439 0.91528323079654 0.60109315245053 0.48940078379262 1.1401845905961 1.0621855833771 1.2154607121805 0.8950274268194 0.94998806853243 1.0495193453813 0.96880068368707 0.78948850498067 0.86533767766572 0.97939258927084 0.58253342536141 0.42481961813314 0.83814105859366 0.52839173743272 0.79287696699489 0.80261552484192 0.3732509761855 0.48573470094651 0.53377254073385 0.60425040644505 0.87624613013466 0.98364542050881 0.78514249489292 0.47141324522301 0.88888239801043 0.45828762576344 0.45294847506415 1.0708010683755 0.54504832138294 1.3900928901204 1.2088435518378 0.74761225335266 0.8013628854194 0.52440520106121 1.1741487236885 0.64587077049343 0.58426495406216 1.7149546987937 1.3556506296427 0.62588420382177 0.78002985108128 0.71807024681717 0.51554149159861 0.47197344568862 0.5177335590813 0.42729232057226 0.56750451934778 0.42324737699732 0.48843944792297 0.54692799918763 0.74528256630081 0.61319291932055 0.54561817800435 0.42530841377614 0.67787772429074 0.46713899273257 1.6860267687341 1.3357157094856 1.1692500896374 1.0474616025849 0.48820376790199 0.54175165799206 0.62444171352828 0.45808983986385 0.44325133779701 0.60047309926894 0.9764193987936 0.74437364666966 0.70701345458493 0.58605828496908 0.42981980101219 1.1772800177703 0.84905225463778 0.58147270861215 0.4446231619519 0.62895923585836 0.48804852140192 0.51754653764254 0.43358008585846 0.45555726304298 0.59741795175234 0.7499994226873 1.1552747945853 0.66020572223281 0.60805323551808 0.70459744990142 0.81127055969773 0.7373680380452 0.42664312538411 0.66536537123935 0.81395686689672 0.87852330868512 0.92087561593696 0.99244504551506 0.93336786868751 0.82853609719759 0.76441860783037 0.8891354489336 0.64250763781887 0.67895503097619 0.61329457582869 0.87088453038368 0.46750685862232 1.1338768837615 0.82294590287786 1.3002486096935 1.1463847896692 0.73858766878614 0.69706382232285 0.73518808578666 0.56529218013606 0.65930606539108 0.42797229594297 0.89804081966441 0.65870931064221 0.75791154205814 0.89486740031041 0.80290668706285 1.1496542393042 0.6770438043042 0.71707153021966 0.80283078262855 0.77564291894333 0.65898908209403 0.48681231802693 0.55399788036617 0.92301389270048 0.71137059389162 0.96558982489485 1.0556814126201 1.0506953972721 1.4785673756953 0.42833961807114 0.57735468453856 0.92469993428739 1.0709282222165 1.5785764424896 1.4387646609173 0.84278841255443 0.72719392517997 1.7957244018456 1.6187098543484 1.3427692303518 1.511762956248 1.300462287109 0.72918326598087 1.5756016883807 1.3153014202404 1.1770346134173 1.2703840908389 1.102473121255 0.8446797382642 0.93017469093605 1.0870471890821 0.91392383166794 0.92232052804112 0.84074851736382 1.2244837273657 1.497074822245 2.0649274261622 1.7534419910825 1.4667216227294 1.231852797939 1.1203199320452 0.7120706293012 1.217971333631 1.0091957243563 1.3065459268424 1.0125440610166 1.0006890555591 0.84053791263407 1.1621884644041 0.80188705977004 0.75275905823581 1.090945259504 2.014285634985 1.8771165565251 2.0009027648542 1.6079493510329 1.0505897304983 1.3075170111004 1.4542299505874 1.3780432451134 1.3227071207074 1.2751077215974 1.2832245809925 1.4276776238387 1.150731654779 0.94800093186053 1.8648488173824 1.662748135176 0.68524943235612 0.39382689334916 0.55497166240879 0.46172896140356 1.2322958853062 1.4784126630326 0.51434540031333 