# vtk DataFile Version 3.0
d-2__ created by libgimli-v1.5.0-1-g5991b6ac
ASCII
DATASET UNSTRUCTURED_GRID
POINTS 257 double
25.5	-0.25	0
25.643267391024	-0.375	0
25.690940791558	-0.19094079155751	0
28.625	-0.27380702240065	0
28.625	-0.13804348840204	0
28.518663902413	-0.18940103023301	0
28.458333333333	-0.087886572211468	0
28.416666666667	0	0
28.375	-0.13804348840204	0
28.291666666667	-0.087886572211468	0
28.333333333333	0	0
28.25	0	0
26.083333333333	0	0
26.041666666667	-0.13804348840203	0
26.125	-0.087886572211466	0
26.166666666667	0	0
26	0	0
26.708333333333	-0.13804348840203	0
26.666666666667	0	0
26.625	-0.087886572211466	0
26.208333333333	-0.07357428207177	0
26.75	0	0
26.791666666667	-0.087886572211464	0
26.333333333333	0	0
26.25	0	0
26.291666666667	-0.087886572211468	0
27.166666666667	0	0
27.208333333333	-0.07357428207177	0
27.25	0	0
26.416666666667	0	0
26.375	-0.13804348840204	0
26.458333333333	-0.087886572211468	0
27.291666666667	-0.087886572211468	0
27.333333333333	0	0
27.625	-0.13804348840204	0
27.518663902413	-0.18940103023301	0
27.625	-0.27380702240065	0
26.583333333333	0	0
28.916666666667	0	0
28.833333333333	0	0
28.875	-0.13804348840204	0
26.833333333333	0	0
26.875	-0.07357428207177	0
29.98747163413	-0.5056358037932	0
30.050519698408	-0.25547676721966	0
29.843533331918	-0.29816134131379	0
29.458333333333	-0.087886572211464	0
29.404607252882	-0.15094638411797	0
29.541666666667	-0.13804348840203	0
26.5	0	0
27.791666666667	-0.087886572211468	0
27.833333333333	0	0
27.75	0	0
27.231336097587	-0.18940103023302	0
27.125	-0.13804348840204	0
25.705488373266	-0.59091608366499	0
26.007921013115	-0.8717186506847	0
25.91135296792	-0.47048281487414	0
30.166666666667	0	0
30.208333333333	-0.087886572211464	0
30.25	0	0
27	0	0
26.916666666667	0	0
26.958333333333	-0.13804348840203	0
30.791666666667	-0.087886572211468	0
30.833333333333	0	0
30.75	0	0
27.041666666667	-0.087886572211464	0
27.083333333333	0	0
30.083333333333	0	0
30.125	-0.07357428207177	0
28.541666666667	-0.073574282071767	0
27.375	-0.13804348840204	0
27.416666666667	0	0
27.5	0	0
27.458333333333	-0.087886572211468	0
28.583333333333	0	0
28.666666666667	0	0
28.226291378505	-0.21877391554365	0
28.432011579996	-0.40775209656411	0
30.148002764253	-0.18940103023303	0
30.208717134119	-0.38392172835888	0
30.291666666667	-0.13804348840203	0
28.208333333333	-0.07357428207177	0
28.166666666667	0	0
28.125	-0.072182208352023	0
27.875	-0.13804348840204	0
26.237940586216	-0.15094638411797	0
27.916666666667	0	0
27.708333333333	-0.07357428207177	0
28.083333333333	0	0
28	0	0
28.041666666667	-0.13804348840203	0
26.190375288162	-0.21877391554366	0
27.958333333333	-0.087886572211464	0
26.541666666667	-0.073574282071767	0
26.571273919549	-0.15094638411796	0
26.317063962986	-0.25702488420529	0
27.541666666667	-0.073574282071767	0
28.5	0	0
29.583333333333	0	0
29.625	-0.087886572211466	0
28.791666666667	-0.087886572211468	0
26.203594889612	-0.40391444725954	0
27.583333333333	0	0
27.666666666667	0	0
28.75	0	0
28.958333333333	-0.087886572211464	0
29	0	0
29.041666666667	-0.13804348840203	0
28.708333333333	-0.07357428207177	0
29.083333333333	0	0
29.125	-0.087886572211466	0
29.166666666667	0	0
29.208333333333	-0.13804348840203	0
29.25	0	0
28.165334880767	-0.15260258505374	0
29.291666666667	-0.087886572211464	0
27.731336097587	-0.18940103023302	0
29.5	0	0
29.416666666667	0	0
29.333333333333	0	0
29.375	-0.07357428207177	0
29.666666666667	0	0
28.086941669094	-0.2859797646022	0
27.958333333333	-0.18219221742147	0
29.125	-0.18219221742148	0
29.228873378537	-0.27753669533404	0
29.708333333333	-0.07357428207177	0
29.041666666667	-0.23876614697008	0
28.958333333333	-0.18219221742147	0
29.833333333333	0	0
29.875	-0.13804348840204	0
29.916666666667	0	0
29.791666666667	-0.087886572211468	0
29.75	0	0
29.958333333333	-0.087886572211464	0
30	0	0
29.483730629652	-0.25702488420531	0
30.333333333333	0	0
30.375	-0.087886572211466	0
29.369620976373	-0.40603607246707	0
29.604159114629	-0.34842263547806	0
31.124752694808	-0.11296503030675	0
31	0	0
30.958333333333	-0.087886572211468	0
30.041666666667	-0.13804348840203	0
30.416666666667	0	0
30.458333333333	-0.07357428207177	0
30.875	-0.13804348840204	0
30.583333333333	0	0
30.541666666667	-0.13804348840203	0
30.625	-0.087886572211466	0
30.5	0	0
30.43533056908	-0.18940103023302	0
30.916666666667	0	0
30.385963434616	-0.36114994877356	0
30.708333333333	-0.07357428207177	0
30.666666666667	0	0
29.636111778917	-0.20065391017952	0
30.999752694808	-0.25100851870879	0
28.731336097587	-0.18940103023302	0
26.851997235747	-0.18940103023303	0
30.737940586216	-0.15094638411797	0
26.523708621495	-0.21877391554365	0
27.133853031742	-0.25547676721968	0
26.949480301592	-0.25547676721966	0
27.041666666667	-0.52911283384145	0
27.041666666667	-0.18219221742147	0
29.357041954828	-0.21877391554366	0
29.737940586216	-0.15094638411797	0
30.690375288162	-0.21877391554366	0
29.958333333333	-0.18219221742147	0
25.875	-0.11303967622539	0
25.75	0	0
26.650397296319	-0.25702488420526	0
27.292050467453	-0.38392172835888	0
27.414390113348	-0.63321254312708	0
27.469144028345	-0.36097200963104	0
27.848127708251	-0.28948918465343	0
28.848127708251	-0.28948918465343	0
28.726596951268	-0.4234584073117	0
29.731548923005	-0.26700761442393	0
30.817063962986	-0.25702488420529	0
26.031958747178	-0.33325463579056	0
26.523689393121	-0.44776195923934	0
29.184065504659	-0.43422319923747	0
29.545209981036	-0.61464357222601	0
30.552290248164	-0.29580321144285	0
31.25	0	0
26.800529041383	-0.37028063139366	0
29.130694908432	-0.28024272799092	0
28.907115884997	-0.43487734236883	0
31.5	-0.5	0
31.5	-0.25	0
31.356886217184	-0.375	0
31.308843572405	-0.19115642759521	0
31.5	0	0
27.681768476189	-0.55823447719905	0
29.041897355025	-0.3545575021244	0
28.950100433703	-0.28398118611486	0
29.746371622197	-0.43057135368151	0
29.045779100149	-0.5143168838031	0
27.615347366628	-0.83560735755964	0
27.971649595913	-0.56775148091581	0
28.235269600634	-0.41546210057925	0
28.346412380513	-0.73751448832674	0
28.007726950717	-0.98664640296265	0
26.322202955504	-0.72835150504623	0
29.798122080496	-0.68908130839227	0
30.703430397599	-0.40445925111313	0
30.914859484231	-0.44990795630246	0
29.247599241801	-0.70334449364573	0
31.053928463665	-0.58159990549132	0
31.221377875989	-0.67457110982012	0
31.225195424337	-0.49586438948828	0
30.530720924191	-0.4852517756918	0
30.323984230706	-0.57992151527177	0
25.84485407481	-1.2957460393421	0
25.743909551686	-0.8528010586154	0
30.746070739038	-0.72060716412098	0
29.604860290622	-0.8788438191921	0
29.043947453281	-1.1807973577914	0
29.54268225478	-1.3246684327942	0
29.849430697053	-0.99522786547226	0
30.043693421774	-0.75311160759413	0
28.849047319116	-0.69970565535729	0
31.000856094841	-0.87446921301307	0
31.5	-1	0
25.845623228308	-0.30002188546398	0
30.512369350266	-0.71824350459	0
30	-1.6666666666667	0
30.051778272566	-1.3024535658708	0
25.5	0	0
27.680522574649	-1.2514855461386	0
27.375	-1.6666666666667	0
27.75	-1.6666666666667	0
31.174325422113	-0.32450830281231	0
25.5	-0.5	0
26.747329141204	-0.71351083399284	0
25.5	-0.75	0
26.348572023727	-1.2023161679924	0
27.179597305363	-1.0673000334922	0
29.25	-1.6666666666667	0
25.5	-1	0
30.75	-1.6666666666667	0
31.013091550828	-1.3141602648437	0
30.625304590967	-1.106556793762	0
30.375	-1.6666666666667	0
30.189043391347	-0.96114657873573	0
28.064690440023	-1.391571216678	0
28.426745644615	-1.201505510398	0
25.5	-1.6666666666667	0
27	-1.6666666666667	0
26.25	-1.6666666666667	0
28.5	-1.6666666666667	0
31.5	-1.6666666666667	0
CELLS 429 1716
3	0	1	2	
3	3	4	5	
3	6	7	8	
3	9	10	11	
3	12	13	14	
3	14	15	12	
3	16	13	12	
3	17	18	19	
3	20	15	14	
3	7	10	8	
3	21	17	22	
3	23	24	25	
3	26	27	28	
3	29	30	31	
3	23	30	29	
3	28	32	33	
3	34	35	36	
3	19	18	37	
3	38	39	40	
3	22	41	21	
3	41	22	42	
3	43	44	45	
3	18	17	21	
3	46	47	48	
3	31	49	29	
3	50	51	52	
3	53	27	54	
3	55	56	57	
3	58	59	60	
3	61	62	63	
3	64	65	66	
3	67	68	61	
3	67	61	63	
3	69	70	58	
3	4	71	5	
3	72	73	33	
3	5	6	8	
3	74	73	75	
3	73	72	75	
3	76	4	77	
3	78	79	8	
3	80	81	82	
3	83	84	85	
3	50	86	51	
3	25	87	30	
3	86	88	51	
3	52	89	50	
3	90	91	92	
3	93	87	14	
3	94	92	91	
3	95	49	31	
3	9	8	10	
3	84	83	11	
3	19	95	96	
3	91	88	94	
3	25	30	23	
3	9	11	83	
3	97	30	87	
3	98	74	75	
3	99	71	76	
3	100	48	101	
3	33	32	72	
3	99	7	6	
3	41	42	62	
3	102	40	39	
3	71	99	6	
3	97	93	103	
3	104	34	105	
3	39	106	102	
3	74	98	104	
3	38	107	108	
3	107	109	108	
3	35	75	72	
3	106	110	102	
3	34	98	35	
3	28	27	32	
3	111	112	113	
3	109	111	108	
3	59	82	60	
3	113	114	115	
3	116	9	83	
3	114	117	115	
3	50	89	118	
3	119	120	46	
3	119	48	100	
3	110	106	77	
3	120	121	122	
3	89	52	105	
3	101	123	100	
3	124	92	125	
3	54	26	68	
3	114	126	127	
3	101	128	123	
3	129	109	130	
3	131	132	133	
3	134	131	135	
3	48	119	46	
3	115	117	121	
3	136	137	133	
3	47	138	48	
3	60	82	139	
3	82	140	139	
3	141	142	138	
3	143	144	145	
3	122	47	46	
3	146	137	136	
3	113	112	114	
3	134	132	131	
3	147	140	148	
3	149	65	64	
3	150	151	152	
3	150	153	151	
3	148	154	151	
3	147	148	153	
3	65	149	155	
3	59	58	70	
3	155	145	144	
3	82	81	156	
3	145	155	149	
3	146	69	137	
3	157	158	152	
3	154	140	82	
3	147	139	140	
3	101	48	159	
3	149	160	145	
3	102	110	161	
3	150	152	158	
3	42	22	162	
3	157	163	64	
3	5	71	6	
3	4	76	71	
3	85	84	90	
3	116	83	85	
3	96	31	164	
3	49	95	37	
3	15	20	24	
3	25	20	87	
3	14	13	93	
3	25	24	20	
3	165	166	167	
3	63	168	67	
3	54	68	67	
3	17	162	22	
3	63	62	42	
3	35	98	75	
3	34	104	98	
3	26	54	27	
3	63	42	162	
3	88	86	94	
3	125	94	86	
3	105	34	89	
3	118	89	34	
3	77	4	110	
3	161	110	4	
3	111	109	112	
3	126	112	109	
3	47	117	169	
3	120	122	46	
3	38	40	107	
3	130	107	40	
3	121	117	122	
3	117	114	169	
3	80	70	146	
3	123	128	135	
3	134	128	170	
3	159	48	138	
3	134	135	128	
3	163	152	171	
3	158	157	66	
3	154	148	140	
3	151	153	148	
3	69	146	70	
3	172	44	146	
3	9	78	8	
3	161	40	102	
3	90	92	85	
3	116	78	9	
3	92	94	125	
3	5	79	3	
3	164	31	30	
3	19	37	95	
3	173	16	174	
3	164	175	96	
3	17	19	96	
3	53	165	176	
3	53	32	27	
3	118	86	50	
3	175	17	96	
3	176	177	178	
3	118	36	179	
3	78	116	124	
3	180	3	181	
3	169	114	127	
3	114	112	126	
3	134	170	132	
3	133	132	136	
3	44	80	146	
3	146	136	172	
3	82	59	80	
3	152	151	171	
3	64	66	157	
3	80	59	70	
3	64	163	149	
3	170	101	159	
3	136	132	172	
3	85	92	116	
3	124	116	92	
3	97	164	30	
3	166	168	63	
3	14	87	20	
3	87	93	97	
3	117	47	122	
3	47	169	138	
3	101	170	128	
3	142	182	159	
3	132	45	172	
3	149	163	183	
3	31	96	95	
3	162	166	63	
3	184	93	13	
3	97	185	164	
3	156	154	82	
3	141	127	186	
3	142	141	187	
3	44	172	45	
3	152	163	157	
3	163	171	183	
3	103	93	184	
3	53	72	32	
3	154	188	151	
3	189	144	143	
3	185	175	164	
3	175	190	162	
3	118	179	86	
3	125	179	124	
3	109	107	130	
3	126	129	191	
3	161	180	40	
3	127	126	191	
3	169	141	138	
3	141	169	127	
3	125	86	179	
3	180	181	192	
3	193	194	195	
3	196	194	197	
3	149	183	160	
3	143	145	160	
3	167	176	165	
3	162	17	175	
3	198	178	177	
3	72	53	176	
3	118	34	36	
3	185	97	103	
3	126	109	129	
3	186	191	199	
3	180	130	40	
3	130	180	200	
3	161	4	3	
3	129	199	191	
3	138	142	159	
3	45	182	201	
3	130	200	129	
3	192	202	199	
3	202	186	199	
3	129	200	199	
3	142	187	201	
3	191	186	127	
3	180	192	200	
3	199	200	192	
3	180	161	3	
3	142	201	182	
3	54	67	168	
3	203	204	198	
3	79	5	8	
3	78	124	205	
3	182	170	159	
3	151	188	171	
3	185	190	175	
3	204	206	205	
3	201	43	45	
3	43	81	44	
3	207	206	204	
3	57	56	208	
3	44	81	80	
3	209	201	187	
3	35	72	178	
3	57	208	103	
3	13	16	173	
3	183	210	211	
3	141	212	187	
3	45	170	182	
3	213	214	215	
3	205	79	78	
3	216	156	217	
3	45	132	170	
3	196	197	189	
3	218	56	219	
3	178	198	36	
3	188	156	216	
3	220	211	210	
3	57	103	184	
3	204	179	198	
3	165	53	54	
3	221	222	223	
3	209	224	225	
3	43	217	81	
3	226	212	202	
3	214	227	228	
3	211	160	183	
3	210	171	188	
3	226	192	181	
3	193	215	214	
3	3	79	181	
3	205	206	79	
3	186	212	141	
3	212	186	202	
3	173	229	13	
3	167	177	176	
3	72	176	178	
3	206	226	181	
3	213	227	214	
3	217	230	216	
3	196	195	194	
3	231	232	223	
3	227	213	220	
3	206	181	79	
3	187	212	221	
3	173	174	2	
3	13	229	184	
3	174	233	2	
3	234	235	236	
3	196	189	143	
3	233	0	2	
3	160	237	143	
3	237	195	196	
3	1	0	238	
3	173	2	229	
3	177	203	198	
3	198	179	36	
3	239	190	185	
3	35	178	36	
3	192	226	202	
3	195	215	193	
3	188	216	210	
3	220	210	216	
3	213	237	211	
3	154	156	188	
3	124	179	204	
3	221	212	222	
3	240	219	55	
3	54	168	165	
3	196	143	237	
3	195	237	215	
3	55	1	238	
3	167	166	190	
3	2	1	229	
3	1	55	57	
3	190	166	162	
3	204	205	124	
3	241	208	56	
3	242	167	239	
3	223	222	243	
3	156	81	217	
3	160	211	237	
3	213	215	237	
3	183	171	210	
3	228	193	214	
3	219	244	218	
3	56	55	219	
3	184	229	57	
3	57	229	1	
3	220	213	211	
3	245	246	247	
3	230	220	216	
3	220	247	227	
3	248	247	232	
3	228	227	246	
3	55	238	240	
3	249	230	217	
3	247	249	232	
3	166	165	168	
3	221	209	187	
3	43	225	217	
3	209	43	201	
3	247	246	227	
3	190	239	167	
3	207	204	203	
3	208	185	103	
3	242	203	177	
3	207	250	251	
3	240	244	219	
3	252	218	244	
3	224	209	221	
3	217	225	249	
3	43	209	225	
3	241	242	239	
3	167	242	177	
3	253	242	241	
3	56	218	241	
3	212	226	222	
3	249	225	224	
3	234	250	207	
3	239	185	208	
3	231	223	243	
3	224	232	249	
3	252	254	218	
3	241	218	254	
3	253	241	254	
3	239	208	241	
3	206	207	251	
3	224	221	223	
3	223	232	224	
3	248	245	247	
3	234	207	203	
3	250	255	251	
3	251	226	206	
3	255	243	222	
3	249	247	230	
3	220	230	247	
3	203	242	234	
3	235	242	253	
3	255	222	251	
3	226	251	222	
3	232	231	248	
3	245	256	246	
3	228	246	256	
3	242	235	234	
3	234	236	250	
3	255	250	236	
CELL_TYPES 429
5 5 5 5 5 5 5 5 5 5 5 5 5 5 5 5 5 5 5 5 5 5 5 5 5 5 5 5 5 5 5 5 5 5 5 5 5 5 5 5 5 5 5 5 5 5 5 5 5 5 5 5 5 5 5 5 5 5 5 5 5 5 5 5 5 5 5 5 5 5 5 5 5 5 5 5 5 5 5 5 5 5 5 5 5 5 5 5 5 5 5 5 5 5 5 5 5 5 5 5 5 5 5 5 5 5 5 5 5 5 5 5 5 5 5 5 5 5 5 5 5 5 5 5 5 5 5 5 5 5 5 5 5 5 5 5 5 5 5 5 5 5 5 5 5 5 5 5 5 5 5 5 5 5 5 5 5 5 5 5 5 5 5 5 5 5 5 5 5 5 5 5 5 5 5 5 5 5 5 5 5 5 5 5 5 5 5 5 5 5 5 5 5 5 5 5 5 5 5 5 5 5 5 5 5 5 5 5 5 5 5 5 5 5 5 5 5 5 5 5 5 5 5 5 5 5 5 5 5 5 5 5 5 5 5 5 5 5 5 5 5 5 5 5 5 5 5 5 5 5 5 5 5 5 5 5 5 5 5 5 5 5 5 5 5 5 5 5 5 5 5 5 5 5 5 5 5 5 5 5 5 5 5 5 5 5 5 5 5 5 5 5 5 5 5 5 5 5 5 5 5 5 5 5 5 5 5 5 5 5 5 5 5 5 5 5 5 5 5 5 5 5 5 5 5 5 5 5 5 5 5 5 5 5 5 5 5 5 5 5 5 5 5 5 5 5 5 5 5 5 5 5 5 5 5 5 5 5 5 5 5 5 5 5 5 5 5 5 5 5 5 5 5 5 5 5 5 5 5 5 5 5 5 5 5 5 5 5 5 5 5 5 5 5 5 5 5 5 5 5 5 5 5 5 5 5 5 5 5 5 5 5 5 5 5 5 5 5 5 5 5 5 5 5 5 5 5 5 5 
CELL_DATA 429
SCALARS Coverage double 1
LOOKUP_TABLE default
1.6677711965856 2.5795288878419 3.0366197578855 3.3525291233747 2.5121565011879 2.8254738760949 2.9515486279814 2.8409571657437 2.7197928781554 3.1835217784838 2.8440299614165 3.1302218653076 3.3759488808114 2.8211486065513 2.9219622277907 3.4184980492254 2.5619614163773 2.9857871010147 3.1911511727168 3.37053516846 3.036429160747 2.1929291552617 3.3570003812422 2.6916798869423 3.218195690072 3.4821397709206 2.6644475270588 1.3349371193372 3.2734986572294 3.3768894469588 2.7493093542819 3.4831420162499 2.9753313276489 3.1695968947633 2.7841831281563 3.063964024826 2.8015099396914 3.0443379738869 2.7813090153606 3.2149144420137 2.4865961694283 2.3950268933116 3.0731694009647 3.0624367470702 2.5091062687587 3.1811370645129 3.1228085412819 3.4677411628979 2.4461152923399 2.9303867023187 2.7688879014091 3.0280459451705 3.3481588476475 2.6597439563581 3.4041512057721 2.6986199715094 2.9111939222014 2.3881004064529 2.7396344432588 3.3432404903732 2.947851993667 3.1008639216997 3.3751422658167 3.1528377875298 3.1115592476776 2.9233686973197 2.1045893047524 3.1285636944109 3.5406834932409 3.0948620439655 3.4445741373586 2.9941105163992 2.652919803318 3.097243200935 2.7413962103611 3.0629081257739 3.1924491427635 3.4547570162617 2.8612700852842 3.2095816609207 2.8248736493051 3.2424937495338 2.9080431418405 3.1221575374589 3.057525431988 3.5794795998929 3.0747700771957 3.479175699885 3.1577720240427 2.6482815352092 3.0139565897406 2.6350800077587 3.1380939442372 2.674678750654 3.054385941497 3.297508745992 2.7677055059102 3.3799758572934 3.5044143265391 2.5730663468249 3.1152821984463 2.864892052114 2.2700644453573 2.1659274285899 2.8677625082953 3.0128423888706 2.931391316723 2.9562188444175 3.0854505559546 2.4371577209982 2.7928388344557 3.4885867572443 2.7969621422871 3.5491955872267 2.5702036086041 3.0503831357061 2.4063746977193 2.3022180358407 2.1604996892405 3.4020208923883 2.7953612449623 2.7170838513002 3.0801294022358 2.7377311018827 2.1337493625382 2.95827728342 2.8347211497207 2.757579362675 2.4369881473971 2.7889591343914 3.0194411229638 3.1399926127188 2.9506906772465 2.5118642310812 3.2357400019983 3.1283680763431 2.5670421174341 2.3377662690814 2.6870085875787 2.2651135085365 2.765720741209 2.9788895110807 2.6711519568077 2.9646296159157 2.626825098051 2.8493232849556 2.9353625002027 2.7018392311271 3.0269152474634 2.7787471310385 3.0882895634228 2.9268229406229 3.2116985755729 2.9267509410855 3.0695870799639 2.8349740560987 2.9377361748887 2.9612895412225 3.0447434809627 2.806884012178 3.0461528976378 2.8403457564596 2.8047870442739 3.3411243620661 2.8105524150448 2.5731578916508 3.1149647429928 2.336564996662 3.0238640326363 2.8232387204916 3.1138555287298 3.0385287570453 2.6407825659819 2.7633182505509 2.847960513388 3.0570667139839 2.725071960947 2.822782422291 2.4027634071243 2.5541451619506 2.8765331094731 2.7761682092986 2.3792355096514 2.6404248376947 2.3773096059545 2.8250272397772 2.8332610619564 2.4863870744431 2.0895699419642 2.5544843030975 2.5835936939991 2.3475525107954 2.7100871462881 2.7336416213767 2.7196061639661 3.0502786186656 2.59180843112 2.8320179425902 2.6403735743811 2.4644446383723 2.6508226167193 2.8478599866241 2.503149053169 2.9127892073312 2.7758432424766 2.9209445764468 2.7254632623904 2.3654608572523 2.5716400292441 2.5935454748747 2.2802832106398 3.0462421158128 2.6102016361328 3.1329450894102 2.4626858799662 2.5202932533261 2.3235964857642 2.6638477680757 2.5488104746681 2.1197351325632 2.1783962824831 2.4845271659788 2.2417833828585 2.0509684950433 2.4597690393655 2.4686712830531 2.2012751197441 1.9719617413465 2.9175076191625 2.6273110759872 2.6619910573106 2.2049355704682 2.3397825813348 2.678924681865 2.5119098195637 2.8360820199857 2.5390487887646 2.6523925668893 2.5162527032175 2.4010405031459 2.442927063877 2.6190910088757 2.2372815943166 1.4011594531463 1.6852549037769 2.0972382655786 2.1769387604681 2.1953982932112 2.5080003996707 2.0034316454389 2.6533864270941 2.7377703239313 2.001559450362 2.6580031420641 2.2776978489765 2.595547760195 2.4891789187123 2.7159267927883 2.3999340633946 2.4016026823612 2.2371727145254 2.5237960924498 2.1383193053903 2.1288677363077 2.4002707612761 2.0251098739287 2.335289871621 2.305639010861 2.2721339171217 2.5411001077626 2.2385158627054 2.7141040909687 1.8564541280407 2.5126049654146 2.3634400033301 2.6935231028206 2.2525383498158 2.1417342854276 1.9792737788728 2.0838540670008 2.1247211683927 1.736902667767 1.3614351126579 2.362452581779 1.8281898961772 2.4476699789651 1.6186880314918 2.4352668283003 1.8812806894516 1.8961771702857 2.4828249322944 1.2570512070534 2.2852879483379 1.8915144558928 2.4989216307316 1.8909966426127 0.98521747279036 2.1841989976957 2.1406580299409 1.5859075465077 1.7694577066695 2.1113100801605 2.5160105472923 1.2052961841543 1.4805402526668 1.9190097832314 1.8499118082178 0.92378933528882 1.9656141821901 2.1030011882303 2.0384800944462 1.1863124174496 2.2421733172019 2.0544777679265 2.0046328872268 1.9624533924569 2.1401077354197 1.9889388070001 2.3856936971869 1.8875971080627 1.120498277687 1.6068840695743 1.5795598522044 0.81581370236564 1.174984888985 2.0419064879784 1.6674977119735 2.1596673623856 2.028098502645 1.9402896412523 0.88379245145854 2.1094564708734 1.7403946269932 1.9760324397234 1.6665884663113 1.4912196001312 2.0208202715871 1.7921555828282 2.285704313673 1.8970748963824 2.3980290610645 1.9837541329963 1.3211907002157 1.9236485103771 1.6185184334412 1.5464461892803 2.3837679127408 2.2587714972476 1.4817709697284 1.1035658377496 2.5327744742403 1.8929083950646 1.4682116557435 1.3745320420905 2.1795445390617 1.7821152533705 1.4878426927361 2.3659347123134 2.1744493032362 1.1649231058375 1.6006013142679 0.97039650040519 1.9833537695789 1.8097780837739 1.4060346141364 2.0406811966294 1.0026462899901 0.87957412898434 1.1283303620277 1.7829233368715 1.679517698159 1.3956881834616 0.68142971297564 1.4205600476589 1.0376046542273 0.74381261484927 0.80628528391902 1.2039922826436 1.3943062811967 0.98446703343419 2.4575822798489 1.6339561755675 1.6779365470977 1.8647542714764 0.82827700641219 1.9069145390733 1.6782334055546 1.7396835364969 1.5660510311117 1.2518794422619 0.96103943945316 0.66231339274634 1.448798121908 1.4546460393585 1.6811814279395 1.240709204661 1.6823536206476 0.93171084688697 0.94222213237693 1.5976287166621 1.3142883332622 1.2222449831293 1.6380476337998 0.78668454499287 1.1188323776173 0.60737120614324 0.76041579130227 0.73134515251111 1.3166824346165 1.5035841432783 1.2410614953009 1.0407357750798 0.61763029962864 1.4048046742339 1.0382835687443 1.6136260977412 0.91267024894287 1.1370542683759 1.1556606617815 1.3365249864923 0.87991454015646 1.0890827731975 1.4169892677145 0.64336778080613 0.54803047731695 0.59326447780656 1.0491997414947 0.99632223364057 0.90550791072032 
SCALARS Marker double 1
LOOKUP_TABLE default
0 1 2 3 4 5 6 7 8 9 10 11 12 13 14 15 16 17 18 19 20 21 22 23 24 25 26 27 28 29 30 31 32 33 34 35 36 37 38 39 40 41 42 43 44 45 46 47 48 49 50 51 52 53 54 55 56 57 58 59 60 61 62 63 64 65 66 67 68 69 70 71 72 73 74 75 76 77 78 79 80 81 82 83 84 85 86 87 88 89 90 91 92 93 94 95 96 97 98 99 100 101 102 103 104 105 106 107 108 109 110 111 112 113 114 115 116 117 118 119 120 121 122 123 124 125 126 127 128 129 130 131 132 133 134 135 136 137 138 139 140 141 142 143 144 145 146 147 148 149 150 151 152 153 154 155 156 157 158 159 160 161 162 163 164 165 166 167 168 169 170 171 172 173 174 175 176 177 178 179 180 181 182 183 184 185 186 187 188 189 190 191 192 193 194 195 196 197 198 199 200 201 202 203 204 205 206 207 208 209 210 211 212 213 214 215 216 217 218 219 220 221 222 223 224 225 226 227 228 229 230 231 232 233 234 235 236 237 238 239 240 241 242 243 244 245 246 247 248 249 250 251 252 253 254 255 256 257 258 259 260 261 262 263 264 265 266 267 268 269 270 271 272 273 274 275 276 277 278 279 280 281 282 283 284 285 286 287 288 289 290 291 292 293 294 295 296 297 298 299 300 301 302 303 304 305 306 307 308 309 310 311 312 313 314 315 316 317 318 319 320 321 322 323 324 325 326 327 328 329 330 331 332 333 334 335 336 337 338 339 340 341 342 343 344 345 346 347 348 349 350 351 352 353 354 355 356 357 358 359 360 361 362 363 364 365 366 367 368 369 370 371 372 373 374 375 376 377 378 379 380 381 382 383 384 385 386 387 388 389 390 391 392 393 394 395 396 397 398 399 400 401 402 403 404 405 406 407 408 409 410 411 412 413 414 415 416 417 418 419 420 421 422 423 424 425 426 427 428 
SCALARS Resistivity double 1
LOOKUP_TABLE default
142.91096587485 100.74891169452 79.169204455904 67.011491061414 139.23298683007 173.03444475145 130.3749142548 74.180278222952 168.4968391714 84.83118580093 90.150259401621 95.280141710692 36.904279814984 124.29163004415 119.13110843431 221.06031501601 66.985434871297 60.894970213588 67.337124899241 72.263977345941 75.438020728355 159.98953048344 95.503172416169 89.024444192156 129.41876798687 58.086137283727 71.169736960401 242.55539924033 61.138284442233 79.520706012701 114.10289526174 65.263307509712 81.855459980132 68.108939313954 75.003240991126 124.77360339566 75.072878795592 43.15026764654 63.598790222934 83.415423579511 92.401960494877 90.845554614848 76.064644709926 62.229723527269 109.48602055444 50.527147605397 102.13978425429 125.91453720528 115.55869114618 68.012215078363 85.497821630139 75.497443819327 67.920096774585 69.439277057787 41.816511121552 105.58053657845 62.308088688687 103.89657235248 44.26879272894 52.412337254642 103.92957061194 165.98432431974 79.424676206716 71.046530879295 79.686847472834 60.901799604727 103.85560379322 121.08599672067 81.587441244632 61.234195790492 62.541333447589 71.052410773601 55.192910730699 101.26902815009 57.533516713943 102.21899971339 59.869937743431 74.072432914017 50.830595271306 53.784400337849 66.791947533984 149.08063418208 92.464310452527 113.41079044082 68.25065145873 112.42267389529 220.17920391489 156.78739752099 165.4132984133 79.85434364701 39.450108245369 99.58391655705 177.42318148947 98.732491970935 35.571713538197 28.316542864733 76.38978927896 287.34807530684 59.874355230883 87.10355994491 38.654948433593 53.648450867454 114.65258408849 17.345952046014 128.91989860623 70.18614801411 59.923110821287 35.340668652423 93.554331585442 87.328496426657 38.889008451559 69.380324235036 114.87996664963 126.01817034508 102.62109476629 65.275897446036 35.550934901527 105.15373767835 45.85494505368 69.262219940636 12.365179076882 75.185510673817 65.695976575654 102.79309396443 26.172411066592 106.78641403519 17.605444835441 88.680321514795 31.961141441838 66.877672463575 66.530815915195 90.76881648257 71.907902724902 92.837105607302 55.098081166889 180.24500935596 123.08882806372 113.10958912354 129.66554743851 96.883042006828 81.686822797755 54.828217378069 93.979282790678 80.222709561174 47.08766403588 73.867253544411 42.201906671256 90.835277400894 51.683095586105 68.002436306333 126.86105248405 95.670941729281 104.78271373886 113.3712442744 70.247854275599 80.6604022826 131.83057074695 151.88950416368 67.773013101067 83.422317978678 234.81916709934 130.48703318494 77.494802823012 185.24917054219 90.106880768078 93.224767888868 85.556916453601 29.471502086964 7.9386597029482 96.557326282498 128.51210788109 71.469133169096 96.865026387378 78.722496438783 100.30625619493 96.39090529502 75.272655360827 71.22751330109 111.2116247294 108.48580405522 58.070728758154 56.159953639746 91.449062701736 74.726511269511 96.512998075729 98.178143866276 80.58230493569 85.160584309652 120.82379267214 88.106857304277 87.760494700856 160.99380245517 113.85338344132 77.482899273764 65.736245740287 51.533078810629 96.355948935868 79.226180941829 65.760886293617 41.999180634622 34.921521088434 68.251481755768 43.25496666723 122.51642249846 71.401655635716 79.03888746933 80.233434254882 102.61385547704 89.038819524818 135.64034546953 105.52884016488 164.39966572579 103.20115054505 135.09791671838 125.16119004467 91.040619767956 28.465930831015 81.899108058141 94.957319234172 98.989658639639 101.09287631144 87.748859965233 133.79538164036 148.18576417002 114.71713212786 22.605160506844 28.982095290456 105.08640672301 125.09832352117 88.332687298368 10.800054795841 98.439815242776 100.46373061282 84.540983552801 93.716025554138 82.938768525035 113.31830603907 116.08143888525 113.60367724163 106.24737985154 114.3648363935 82.384765096888 178.11386130336 81.523212024614 52.68453055394 24.581870653761 19.910171041704 106.34122100449 93.251098984145 134.64412817759 103.69388348614 79.701123475301 110.4859770671 96.722184299831 143.95952074082 107.24528957761 126.93673066995 119.4486525876 131.32600966498 106.88876402125 151.51173605152 120.0441274839 181.99397477511 172.31297889805 136.79194959407 169.4302661187 129.61771695559 155.43410839421 159.30374918171 136.16958683234 148.41348526118 71.23764029697 174.73352226847 88.374409076997 112.63327059679 124.91084153824 58.482487186818 108.21453509351 155.16902953066 184.82221888112 164.69961394702 192.33323312954 228.72160138014 115.10386076184 223.17250580176 69.318842619183 159.71625488028 74.146091758264 39.569208149169 181.47292724905 121.19704592199 130.45444045326 116.02985278473 143.56330916863 89.44975137176 38.22233408849 352.53136659515 105.62447277134 97.686262327472 71.383600947982 124.76227955562 137.5845873528 82.064558638557 394.50317467694 345.12496012542 202.22694276047 230.83131240639 229.73566155383 30.570869072808 50.098051246085 205.82842876017 135.76626571879 149.5273621953 144.16092965549 165.76978464337 189.36852584586 83.789474303584 134.15260223548 92.560810971024 211.01829401126 173.45582825585 196.89598511607 64.066290509136 511.26746942896 166.34561464437 168.2860431858 248.78655447515 82.006304195388 95.249179214952 104.64295677647 316.22361408352 24.347624453121 126.25769745015 28.63660478407 57.369703038572 176.12317973961 95.067296601637 174.23037653368 108.58898968368 135.74376941346 76.586967261094 210.13774551765 97.81111688458 76.130905834952 97.418856340179 69.710780175068 90.220776983271 122.34706900823 312.35118902341 300.31230069438 79.797525625427 34.375056519392 80.953649486648 209.11858400124 108.2418040713 126.61341725574 197.16649602831 101.10778691073 132.61170667478 284.20198680098 198.28902527845 433.24190617003 149.24149776111 38.171127949716 91.275606746248 35.415213572986 186.91038816507 379.20768317569 299.19474476033 119.54299815835 145.0610201917 94.840301112754 455.18226906022 172.47467399141 256.72033304735 525.45672495439 341.46583768185 255.17596634387 294.30981753959 452.58496801623 88.000528264195 268.90691895486 286.31709223723 237.57937745597 355.78416091812 139.98408423879 206.23261745733 143.88817493072 209.41691433367 264.16158039388 342.68651175713 426.77081776089 340.3263588577 331.30816306118 294.97188438102 285.14059970019 183.06483244908 383.56735031207 362.1771466833 285.59159305538 381.41562159684 270.51102008286 171.05641618405 490.10938614972 446.47136231231 445.61351336547 426.62845548999 435.7210980834 250.57257263194 228.3618224068 407.22570700959 468.11115270424 515.17454878305 248.25606620649 298.49947475756 242.35885048769 391.2634625641 340.36390501739 255.15959161773 264.43792513304 368.30712832663 330.43244363509 291.42760902887 533.99190640687 463.17428017287 424.91880003295 324.6702764297 298.01554767052 301.4082967747 
SCALARS Resistivity_(log10) double 1
LOOKUP_TABLE default