# vtk DataFile Version 3.0
d-2__ created by libgimli-v1.5.0-1-g5991b6ac
ASCII
DATASET UNSTRUCTURED_GRID
POINTS 10201 double
0	-10	0
0.5	-10	0
0.5	-9.9	0
0	-9.9	0
1	-10	0
1	-9.9	0
1.5	-10	0
1.5	-9.9	0
2	-10	0
2	-9.9	0
2.5	-10	0
2.5	-9.9	0
3	-10	0
3	-9.9	0
3.5	-10	0
3.5	-9.9	0
4	-10	0
4	-9.9	0
4.5	-10	0
4.5	-9.9	0
5	-10	0
5	-9.9	0
5.5	-10	0
5.5	-9.9	0
6	-10	0
6	-9.9	0
6.5	-10	0
6.5	-9.9	0
7	-10	0
7	-9.9	0
7.5	-10	0
7.5	-9.9	0
8	-10	0
8	-9.9	0
8.5	-10	0
8.5	-9.9	0
9	-10	0
9	-9.9	0
9.5	-10	0
9.5	-9.9	0
10	-10	0
10	-9.9	0
10.5	-10	0
10.5	-9.9	0
11	-10	0
11	-9.9	0
11.5	-10	0
11.5	-9.9	0
12	-10	0
12	-9.9	0
12.5	-10	0
12.5	-9.9	0
13	-10	0
13	-9.9	0
13.5	-10	0
13.5	-9.9	0
14	-10	0
14	-9.9	0
14.5	-10	0
14.5	-9.9	0
15	-10	0
15	-9.9	0
15.5	-10	0
15.5	-9.9	0
16	-10	0
16	-9.9	0
16.5	-10	0
16.5	-9.9	0
17	-10	0
17	-9.9	0
17.5	-10	0
17.5	-9.9	0
18	-10	0
18	-9.9	0
18.5	-10	0
18.5	-9.9	0
19	-10	0
19	-9.9	0
19.5	-10	0
19.5	-9.9	0
20	-10	0
20	-9.9	0
20.5	-10	0
20.5	-9.9	0
21	-10	0
21	-9.9	0
21.5	-10	0
21.5	-9.9	0
22	-10	0
22	-9.9	0
22.5	-10	0
22.5	-9.9	0
23	-10	0
23	-9.9	0
23.5	-10	0
23.5	-9.9	0
24	-10	0
24	-9.9	0
24.5	-10	0
24.5	-9.9	0
25	-10	0
25	-9.9	0
25.5	-10	0
25.5	-9.9	0
26	-10	0
26	-9.9	0
26.5	-10	0
26.5	-9.9	0
27	-10	0
27	-9.9	0
27.5	-10	0
27.5	-9.9	0
28	-10	0
28	-9.9	0
28.5	-10	0
28.5	-9.9	0
29	-10	0
29	-9.9	0
29.5	-10	0
29.5	-9.9	0
30	-10	0
30	-9.9	0
30.5	-10	0
30.5	-9.9	0
31	-10	0
31	-9.9	0
31.5	-10	0
31.5	-9.9	0
32	-10	0
32	-9.9	0
32.5	-10	0
32.5	-9.9	0
33	-10	0
33	-9.9	0
33.5	-10	0
33.5	-9.9	0
34	-10	0
34	-9.9	0
34.5	-10	0
34.5	-9.9	0
35	-10	0
35	-9.9	0
35.5	-10	0
35.5	-9.9	0
36	-10	0
36	-9.9	0
36.5	-10	0
36.5	-9.9	0
37	-10	0
37	-9.9	0
37.5	-10	0
37.5	-9.9	0
38	-10	0
38	-9.9	0
38.5	-10	0
38.5	-9.9	0
39	-10	0
39	-9.9	0
39.5	-10	0
39.5	-9.9	0
40	-10	0
40	-9.9	0
40.5	-10	0
40.5	-9.9	0
41	-10	0
41	-9.9	0
41.5	-10	0
41.5	-9.9	0
42	-10	0
42	-9.9	0
42.5	-10	0
42.5	-9.9	0
43	-10	0
43	-9.9	0
43.5	-10	0
43.5	-9.9	0
44	-10	0
44	-9.9	0
44.5	-10	0
44.5	-9.9	0
45	-10	0
45	-9.9	0
45.5	-10	0
45.5	-9.9	0
46	-10	0
46	-9.9	0
46.5	-10	0
46.5	-9.9	0
47	-10	0
47	-9.9	0
47.5	-10	0
47.5	-9.9	0
48	-10	0
48	-9.9	0
48.5	-10	0
48.5	-9.9	0
49	-10	0
49	-9.9	0
49.5	-10	0
49.5	-9.9	0
50	-10	0
50	-9.9	0
0.5	-9.8	0
0	-9.8	0
1	-9.8	0
1.5	-9.8	0
2	-9.8	0
2.5	-9.8	0
3	-9.8	0
3.5	-9.8	0
4	-9.8	0
4.5	-9.8	0
5	-9.8	0
5.5	-9.8	0
6	-9.8	0
6.5	-9.8	0
7	-9.8	0
7.5	-9.8	0
8	-9.8	0
8.5	-9.8	0
9	-9.8	0
9.5	-9.8	0
10	-9.8	0
10.5	-9.8	0
11	-9.8	0
11.5	-9.8	0
12	-9.8	0
12.5	-9.8	0
13	-9.8	0
13.5	-9.8	0
14	-9.8	0
14.5	-9.8	0
15	-9.8	0
15.5	-9.8	0
16	-9.8	0
16.5	-9.8	0
17	-9.8	0
17.5	-9.8	0
18	-9.8	0
18.5	-9.8	0
19	-9.8	0
19.5	-9.8	0
20	-9.8	0
20.5	-9.8	0
21	-9.8	0
21.5	-9.8	0
22	-9.8	0
22.5	-9.8	0
23	-9.8	0
23.5	-9.8	0
24	-9.8	0
24.5	-9.8	0
25	-9.8	0
25.5	-9.8	0
26	-9.8	0
26.5	-9.8	0
27	-9.8	0
27.5	-9.8	0
28	-9.8	0
28.5	-9.8	0
29	-9.8	0
29.5	-9.8	0
30	-9.8	0
30.5	-9.8	0
31	-9.8	0
31.5	-9.8	0
32	-9.8	0
32.5	-9.8	0
33	-9.8	0
33.5	-9.8	0
34	-9.8	0
34.5	-9.8	0
35	-9.8	0
35.5	-9.8	0
36	-9.8	0
36.5	-9.8	0
37	-9.8	0
37.5	-9.8	0
38	-9.8	0
38.5	-9.8	0
39	-9.8	0
39.5	-9.8	0
40	-9.8	0
40.5	-9.8	0
41	-9.8	0
41.5	-9.8	0
42	-9.8	0
42.5	-9.8	0
43	-9.8	0
43.5	-9.8	0
44	-9.8	0
44.5	-9.8	0
45	-9.8	0
45.5	-9.8	0
46	-9.8	0
46.5	-9.8	0
47	-9.8	0
47.5	-9.8	0
48	-9.8	0
48.5	-9.8	0
49	-9.8	0
49.5	-9.8	0
50	-9.8	0
0.5	-9.7	0
0	-9.7	0
1	-9.7	0
1.5	-9.7	0
2	-9.7	0
2.5	-9.7	0
3	-9.7	0
3.5	-9.7	0
4	-9.7	0
4.5	-9.7	0
5	-9.7	0
5.5	-9.7	0
6	-9.7	0
6.5	-9.7	0
7	-9.7	0
7.5	-9.7	0
8	-9.7	0
8.5	-9.7	0
9	-9.7	0
9.5	-9.7	0
10	-9.7	0
10.5	-9.7	0
11	-9.7	0
11.5	-9.7	0
12	-9.7	0
12.5	-9.7	0
13	-9.7	0
13.5	-9.7	0
14	-9.7	0
14.5	-9.7	0
15	-9.7	0
15.5	-9.7	0
16	-9.7	0
16.5	-9.7	0
17	-9.7	0
17.5	-9.7	0
18	-9.7	0
18.5	-9.7	0
19	-9.7	0
19.5	-9.7	0
20	-9.7	0
20.5	-9.7	0
21	-9.7	0
21.5	-9.7	0
22	-9.7	0
22.5	-9.7	0
23	-9.7	0
23.5	-9.7	0
24	-9.7	0
24.5	-9.7	0
25	-9.7	0
25.5	-9.7	0
26	-9.7	0
26.5	-9.7	0
27	-9.7	0
27.5	-9.7	0
28	-9.7	0
28.5	-9.7	0
29	-9.7	0
29.5	-9.7	0
30	-9.7	0
30.5	-9.7	0
31	-9.7	0
31.5	-9.7	0
32	-9.7	0
32.5	-9.7	0
33	-9.7	0
33.5	-9.7	0
34	-9.7	0
34.5	-9.7	0
35	-9.7	0
35.5	-9.7	0
36	-9.7	0
36.5	-9.7	0
37	-9.7	0
37.5	-9.7	0
38	-9.7	0
38.5	-9.7	0
39	-9.7	0
39.5	-9.7	0
40	-9.7	0
40.5	-9.7	0
41	-9.7	0
41.5	-9.7	0
42	-9.7	0
42.5	-9.7	0
43	-9.7	0
43.5	-9.7	0
44	-9.7	0
44.5	-9.7	0
45	-9.7	0
45.5	-9.7	0
46	-9.7	0
46.5	-9.7	0
47	-9.7	0
47.5	-9.7	0
48	-9.7	0
48.5	-9.7	0
49	-9.7	0
49.5	-9.7	0
50	-9.7	0
0.5	-9.6	0
0	-9.6	0
1	-9.6	0
1.5	-9.6	0
2	-9.6	0
2.5	-9.6	0
3	-9.6	0
3.5	-9.6	0
4	-9.6	0
4.5	-9.6	0
5	-9.6	0
5.5	-9.6	0
6	-9.6	0
6.5	-9.6	0
7	-9.6	0
7.5	-9.6	0
8	-9.6	0
8.5	-9.6	0
9	-9.6	0
9.5	-9.6	0
10	-9.6	0
10.5	-9.6	0
11	-9.6	0
11.5	-9.6	0
12	-9.6	0
12.5	-9.6	0
13	-9.6	0
13.5	-9.6	0
14	-9.6	0
14.5	-9.6	0
15	-9.6	0
15.5	-9.6	0
16	-9.6	0
16.5	-9.6	0
17	-9.6	0
17.5	-9.6	0
18	-9.6	0
18.5	-9.6	0
19	-9.6	0
19.5	-9.6	0
20	-9.6	0
20.5	-9.6	0
21	-9.6	0
21.5	-9.6	0
22	-9.6	0
22.5	-9.6	0
23	-9.6	0
23.5	-9.6	0
24	-9.6	0
24.5	-9.6	0
25	-9.6	0
25.5	-9.6	0
26	-9.6	0
26.5	-9.6	0
27	-9.6	0
27.5	-9.6	0
28	-9.6	0
28.5	-9.6	0
29	-9.6	0
29.5	-9.6	0
30	-9.6	0
30.5	-9.6	0
31	-9.6	0
31.5	-9.6	0
32	-9.6	0
32.5	-9.6	0
33	-9.6	0
33.5	-9.6	0
34	-9.6	0
34.5	-9.6	0
35	-9.6	0
35.5	-9.6	0
36	-9.6	0
36.5	-9.6	0
37	-9.6	0
37.5	-9.6	0
38	-9.6	0
38.5	-9.6	0
39	-9.6	0
39.5	-9.6	0
40	-9.6	0
40.5	-9.6	0
41	-9.6	0
41.5	-9.6	0
42	-9.6	0
42.5	-9.6	0
43	-9.6	0
43.5	-9.6	0
44	-9.6	0
44.5	-9.6	0
45	-9.6	0
45.5	-9.6	0
46	-9.6	0
46.5	-9.6	0
47	-9.6	0
47.5	-9.6	0
48	-9.6	0
48.5	-9.6	0
49	-9.6	0
49.5	-9.6	0
50	-9.6	0
0.5	-9.5	0
0	-9.5	0
1	-9.5	0
1.5	-9.5	0
2	-9.5	0
2.5	-9.5	0
3	-9.5	0
3.5	-9.5	0
4	-9.5	0
4.5	-9.5	0
5	-9.5	0
5.5	-9.5	0
6	-9.5	0
6.5	-9.5	0
7	-9.5	0
7.5	-9.5	0
8	-9.5	0
8.5	-9.5	0
9	-9.5	0
9.5	-9.5	0
10	-9.5	0
10.5	-9.5	0
11	-9.5	0
11.5	-9.5	0
12	-9.5	0
12.5	-9.5	0
13	-9.5	0
13.5	-9.5	0
14	-9.5	0
14.5	-9.5	0
15	-9.5	0
15.5	-9.5	0
16	-9.5	0
16.5	-9.5	0
17	-9.5	0
17.5	-9.5	0
18	-9.5	0
18.5	-9.5	0
19	-9.5	0
19.5	-9.5	0
20	-9.5	0
20.5	-9.5	0
21	-9.5	0
21.5	-9.5	0
22	-9.5	0
22.5	-9.5	0
23	-9.5	0
23.5	-9.5	0
24	-9.5	0
24.5	-9.5	0
25	-9.5	0
25.5	-9.5	0
26	-9.5	0
26.5	-9.5	0
27	-9.5	0
27.5	-9.5	0
28	-9.5	0
28.5	-9.5	0
29	-9.5	0
29.5	-9.5	0
30	-9.5	0
30.5	-9.5	0
31	-9.5	0
31.5	-9.5	0
32	-9.5	0
32.5	-9.5	0
33	-9.5	0
33.5	-9.5	0
34	-9.5	0
34.5	-9.5	0
35	-9.5	0
35.5	-9.5	0
36	-9.5	0
36.5	-9.5	0
37	-9.5	0
37.5	-9.5	0
38	-9.5	0
38.5	-9.5	0
39	-9.5	0
39.5	-9.5	0
40	-9.5	0
40.5	-9.5	0
41	-9.5	0
41.5	-9.5	0
42	-9.5	0
42.5	-9.5	0
43	-9.5	0
43.5	-9.5	0
44	-9.5	0
44.5	-9.5	0
45	-9.5	0
45.5	-9.5	0
46	-9.5	0
46.5	-9.5	0
47	-9.5	0
47.5	-9.5	0
48	-9.5	0
48.5	-9.5	0
49	-9.5	0
49.5	-9.5	0
50	-9.5	0
0.5	-9.4	0
0	-9.4	0
1	-9.4	0
1.5	-9.4	0
2	-9.4	0
2.5	-9.4	0
3	-9.4	0
3.5	-9.4	0
4	-9.4	0
4.5	-9.4	0
5	-9.4	0
5.5	-9.4	0
6	-9.4	0
6.5	-9.4	0
7	-9.4	0
7.5	-9.4	0
8	-9.4	0
8.5	-9.4	0
9	-9.4	0
9.5	-9.4	0
10	-9.4	0
10.5	-9.4	0
11	-9.4	0
11.5	-9.4	0
12	-9.4	0
12.5	-9.4	0
13	-9.4	0
13.5	-9.4	0
14	-9.4	0
14.5	-9.4	0
15	-9.4	0
15.5	-9.4	0
16	-9.4	0
16.5	-9.4	0
17	-9.4	0
17.5	-9.4	0
18	-9.4	0
18.5	-9.4	0
19	-9.4	0
19.5	-9.4	0
20	-9.4	0
20.5	-9.4	0
21	-9.4	0
21.5	-9.4	0
22	-9.4	0
22.5	-9.4	0
23	-9.4	0
23.5	-9.4	0
24	-9.4	0
24.5	-9.4	0
25	-9.4	0
25.5	-9.4	0
26	-9.4	0
26.5	-9.4	0
27	-9.4	0
27.5	-9.4	0
28	-9.4	0
28.5	-9.4	0
29	-9.4	0
29.5	-9.4	0
30	-9.4	0
30.5	-9.4	0
31	-9.4	0
31.5	-9.4	0
32	-9.4	0
32.5	-9.4	0
33	-9.4	0
33.5	-9.4	0
34	-9.4	0
34.5	-9.4	0
35	-9.4	0
35.5	-9.4	0
36	-9.4	0
36.5	-9.4	0
37	-9.4	0
37.5	-9.4	0
38	-9.4	0
38.5	-9.4	0
39	-9.4	0
39.5	-9.4	0
40	-9.4	0
40.5	-9.4	0
41	-9.4	0
41.5	-9.4	0
42	-9.4	0
42.5	-9.4	0
43	-9.4	0
43.5	-9.4	0
44	-9.4	0
44.5	-9.4	0
45	-9.4	0
45.5	-9.4	0
46	-9.4	0
46.5	-9.4	0
47	-9.4	0
47.5	-9.4	0
48	-9.4	0
48.5	-9.4	0
49	-9.4	0
49.5	-9.4	0
50	-9.4	0
0.5	-9.3	0
0	-9.3	0
1	-9.3	0
1.5	-9.3	0
2	-9.3	0
2.5	-9.3	0
3	-9.3	0
3.5	-9.3	0
4	-9.3	0
4.5	-9.3	0
5	-9.3	0
5.5	-9.3	0
6	-9.3	0
6.5	-9.3	0
7	-9.3	0
7.5	-9.3	0
8	-9.3	0
8.5	-9.3	0
9	-9.3	0
9.5	-9.3	0
10	-9.3	0
10.5	-9.3	0
11	-9.3	0
11.5	-9.3	0
12	-9.3	0
12.5	-9.3	0
13	-9.3	0
13.5	-9.3	0
14	-9.3	0
14.5	-9.3	0
15	-9.3	0
15.5	-9.3	0
16	-9.3	0
16.5	-9.3	0
17	-9.3	0
17.5	-9.3	0
18	-9.3	0
18.5	-9.3	0
19	-9.3	0
19.5	-9.3	0
20	-9.3	0
20.5	-9.3	0
21	-9.3	0
21.5	-9.3	0
22	-9.3	0
22.5	-9.3	0
23	-9.3	0
23.5	-9.3	0
24	-9.3	0
24.5	-9.3	0
25	-9.3	0
25.5	-9.3	0
26	-9.3	0
26.5	-9.3	0
27	-9.3	0
27.5	-9.3	0
28	-9.3	0
28.5	-9.3	0
29	-9.3	0
29.5	-9.3	0
30	-9.3	0
30.5	-9.3	0
31	-9.3	0
31.5	-9.3	0
32	-9.3	0
32.5	-9.3	0
33	-9.3	0
33.5	-9.3	0
34	-9.3	0
34.5	-9.3	0
35	-9.3	0
35.5	-9.3	0
36	-9.3	0
36.5	-9.3	0
37	-9.3	0
37.5	-9.3	0
38	-9.3	0
38.5	-9.3	0
39	-9.3	0
39.5	-9.3	0
40	-9.3	0
40.5	-9.3	0
41	-9.3	0
41.5	-9.3	0
42	-9.3	0
42.5	-9.3	0
43	-9.3	0
43.5	-9.3	0
44	-9.3	0
44.5	-9.3	0
45	-9.3	0
45.5	-9.3	0
46	-9.3	0
46.5	-9.3	0
47	-9.3	0
47.5	-9.3	0
48	-9.3	0
48.5	-9.3	0
49	-9.3	0
49.5	-9.3	0
50	-9.3	0
0.5	-9.2	0
0	-9.2	0
1	-9.2	0
1.5	-9.2	0
2	-9.2	0
2.5	-9.2	0
3	-9.2	0
3.5	-9.2	0
4	-9.2	0
4.5	-9.2	0
5	-9.2	0
5.5	-9.2	0
6	-9.2	0
6.5	-9.2	0
7	-9.2	0
7.5	-9.2	0
8	-9.2	0
8.5	-9.2	0
9	-9.2	0
9.5	-9.2	0
10	-9.2	0
10.5	-9.2	0
11	-9.2	0
11.5	-9.2	0
12	-9.2	0
12.5	-9.2	0
13	-9.2	0
13.5	-9.2	0
14	-9.2	0
14.5	-9.2	0
15	-9.2	0
15.5	-9.2	0
16	-9.2	0
16.5	-9.2	0
17	-9.2	0
17.5	-9.2	0
18	-9.2	0
18.5	-9.2	0
19	-9.2	0
19.5	-9.2	0
20	-9.2	0
20.5	-9.2	0
21	-9.2	0
21.5	-9.2	0
22	-9.2	0
22.5	-9.2	0
23	-9.2	0
23.5	-9.2	0
24	-9.2	0
24.5	-9.2	0
25	-9.2	0
25.5	-9.2	0
26	-9.2	0
26.5	-9.2	0
27	-9.2	0
27.5	-9.2	0
28	-9.2	0
28.5	-9.2	0
29	-9.2	0
29.5	-9.2	0
30	-9.2	0
30.5	-9.2	0
31	-9.2	0
31.5	-9.2	0
32	-9.2	0
32.5	-9.2	0
33	-9.2	0
33.5	-9.2	0
34	-9.2	0
34.5	-9.2	0
35	-9.2	0
35.5	-9.2	0
36	-9.2	0
36.5	-9.2	0
37	-9.2	0
37.5	-9.2	0
38	-9.2	0
38.5	-9.2	0
39	-9.2	0
39.5	-9.2	0
40	-9.2	0
40.5	-9.2	0
41	-9.2	0
41.5	-9.2	0
42	-9.2	0
42.5	-9.2	0
43	-9.2	0
43.5	-9.2	0
44	-9.2	0
44.5	-9.2	0
45	-9.2	0
45.5	-9.2	0
46	-9.2	0
46.5	-9.2	0
47	-9.2	0
47.5	-9.2	0
48	-9.2	0
48.5	-9.2	0
49	-9.2	0
49.5	-9.2	0
50	-9.2	0
0.5	-9.1	0
0	-9.1	0
1	-9.1	0
1.5	-9.1	0
2	-9.1	0
2.5	-9.1	0
3	-9.1	0
3.5	-9.1	0
4	-9.1	0
4.5	-9.1	0
5	-9.1	0
5.5	-9.1	0
6	-9.1	0
6.5	-9.1	0
7	-9.1	0
7.5	-9.1	0
[...]
CELL_DATA 10000
SCALARS Coverage double 1
LOOKUP_TABLE default
-0.27206783632972 -0.24441220018354 -0.21816086112169 -0.19336065003682 -0.17005140818146 -0.14828214863703 -0.12801770316021 -0.10907998358589 -0.091536289071063 -0.075435183500349 -0.060582703023251 -0.047014649484464 -0.034591012652717 -0.023272558824515 -0.01289668849178 -0.0033100310095486 0.0052936740232522 0.013240898884391 0.020395928118008 0.026972224619771 0.032915690933053 0.038441480136406 0.043421036288602 0.048070445332143 0.05240380283458 0.056247107616971 0.059923508159898 0.063141812128081 0.066092009453606 0.068822769607652 0.071409715054621 0.073841311399456 0.07626166038795 0.078589557889318 0.080661599185728 0.082677945239038 0.084804854153884 0.08680938853394 0.088723693360737 0.090593255979085 0.092250550756524 0.093734722674574 0.094979565279558 0.096052374875172 0.096979361448844 0.09778277516397 0.098115264919873 0.098193678099982 0.097957684274728 0.097449171565805 0.096746840757267 0.096010952871163 0.095265853300701 0.094583054950937 0.09403352882345 0.093563448257579 0.092981748540097 0.092324878975728 0.09154128923403 0.090616461112183 0.089533718669194 0.088198217137466 0.086791310987867 0.085041938905907 0.082849356435106 0.080214256078867 0.077194074484984 0.073598794065349 0.069554785692978 0.064936125185041 0.059768359827241 0.053929752526946 0.047570939852527 0.040745413012347 0.033401587822798 0.025593022430965 0.017247881465279 0.008457073105012 -0.00083377195579434 -0.010488119117405 -0.020725474423232 -0.031318708288019 -0.042523701124021 -0.054299726832386 -0.06664056351741 -0.079403192878699 -0.092661098522689 -0.10646197150363 -0.12061671728217 -0.13567478985844 -0.15161483642162 -0.16823192580827 -0.18557136168645 -0.20382356234449 -0.22315769505553 -0.24374260710601 -0.26544920946748 -0.28812149276749 -0.31169821449749 -0.33622182510052 -0.26070620653725 -0.23271896667545 -0.20616013639694 -0.18107746774536 -0.15751697862043 -0.13551610910167 -0.11505219082055 -0.095958645687191 -0.078272536999474 -0.062021855407994 -0.047075786145051 -0.033401573117399 -0.020892298926509 -0.0094934114799345 0.00095008303613538 0.010572647863491 0.019254174219147 0.027233326113401 0.034446677927516 0.041040159144047 0.047041086946114 0.05257548730467 0.057602438093937 0.062283865605872 0.066613503401396 0.070517810774276 0.074175735148315 0.077425357570044 0.08036351939578 0.08310853994416 0.085678207287096 0.088119671487297 0.090535260977695 0.092842773423326 0.094926691733465 0.096933141646116 0.099046360626493 0.10106232948511 0.10297405300131 0.10481650046474 0.1064895583043 0.10795910442757 0.1091992829424 0.11024117075569 0.11117619779173 0.11195986982882 0.11230699290772 0.11237056552245 0.11215631721204 0.1116457309724 0.11095640440663 0.11022236622255 0.10950945768243 0.10883102628002 0.1083200749689 0.10788338957679 0.10735135751979 0.10673159710458 0.10600415025481 0.10514358278713 0.10410001181901 0.10282786315401 0.10146659356634 0.099747272229642 0.097599046136901 0.095001789624196 0.091999473057811 0.088437960672741 0.084394415260173 0.079777850524212 0.074586416087187 0.06873504401908 0.06235156134545 0.055485753647154 0.048113492038019 0.040260398580695 0.03186016838717 0.022990408962543 0.013662406694062 0.0039163844977372 -0.0063788513725727 -0.017056179174939 -0.028342124440538 -0.040232069183789 -0.052660417153039 -0.065527053773399 -0.078913454613423 -0.092811227893103 -0.10710371387563 -0.12230442615639 -0.13836981636015 -0.15516356385656 -0.17267564204437 -0.19110344833819 -0.21064973236227 -0.23146781994589 -0.25343765503581 -0.27637977868577 -0.30023964666337 -0.32506154624841 -0.24925608668532 -0.22093008003086 -0.19405725225925 -0.16868617578163 -0.14487000566722 -0.12263922099578 -0.10197286715559 -0.082719200203022 -0.064889421365964 -0.048495061812208 -0.033447211126014 -0.019674281127891 -0.007078812279213 0.0043962345615341 0.014907804043386 0.024577626492323 0.033322062039787 0.041342279806189 0.048598740972355 0.055223362569587 0.0612656756757 0.066823801502819 0.071886224645218 0.076601547733598 0.080940306843916 0.084888528828068 0.088540475449557 0.09180860231128 0.094736947019158 0.097498249692693 0.10005975214826 0.10250107276662 0.10491070298262 0.10720799551796 0.10929018792954 0.11129813092627 0.1133967086714 0.11541889732597 0.11732696283354 0.11915235285277 0.12082687696213 0.12229497365669 0.12351885266667 0.12454346796607 0.12547466540046 0.12624640302793 0.12659758022448 0.12666198102418 0.12645130436357 0.12595070394794 0.12527205457954 0.1245429676545 0.12385049228175 0.12319103330681 0.12270564479149 0.12231257844399 0.12182896725372 0.12125026935549 0.12057554734238 0.11978856504435 0.11878902244238 0.1175763479429 0.11625767256197 0.11457757184647 0.11246991335469 0.10991595025482 0.10693627489258 0.10340122980342 0.099357597564175 0.094744888209871 0.089528949196654 0.08367379558636 0.077257051885856 0.070352365948584 0.062945455502976 0.055055909555099 0.046595743784306 0.037655859812139 0.028274291134518 0.018450508688959 0.0080901368203073 -0.0026697978268609 -0.014043124622739 -0.026032352673987 -0.038558938963336 -0.051531617415451 -0.065031822002544 -0.079039402825101 -0.093463535428929 -0.10879573344129 -0.12500614044496 -0.1419714963394 -0.15965107785711 -0.17825857549554 -0.19802301323037 -0.21907378600401 -0.24131008312084 -0.2645273941743 -0.28867710434666 -0.31380390986026 -0.23771832346547 -0.20904467017406 -0.18185325039867 -0.15618900116714 -0.13211368694554 -0.1096513839657 -0.088779390845693 -0.069362598740995 -0.051386996678678 -0.034853571702294 -0.019700515520707 -0.0058329288254799 0.0068494975341504 0.018397858099582 0.028980651755464 0.038698152383959 0.047500709234524 0.055563527330358 0.062856724548424 0.069519038767481 0.075598517002409 0.081185124084007 0.086276911351047 0.091025161581927 0.095377270249735 0.09936013156211 0.10301698208467 0.10629649406824 0.1092181792189 0.11199137471526 0.11455407362761 0.11699093246404 0.11939134026354 0.12167960968512 0.12375917815774 0.12576954199625 0.12785758572691 0.1298796481816 0.13178515246635 0.13359909737523 0.13527048876837 0.13673552070446 0.13794563878803 0.13895147375978 0.13987096327687 0.14063703391636 0.14099366809874 0.14106262746721 0.14085098430051 0.14035580423908 0.13968844511218 0.13897144248579 0.13829930443067 0.13766660042553 0.13719952434159 0.13684407778603 0.13641252605346 0.13588046985095 0.13525843106132 0.13454705028702 0.13359690021083 0.13244091469734 0.13116478313194 0.12953326306661 0.12746020408091 0.12495326120686 0.12199711623862 0.11848875091435 0.11444753756674 0.10983818075337 0.1045943638257 0.098734952848159 0.092285814491494 0.08534859077282 0.077907752956606 0.069977635079662 0.061453830947804 0.052449661418861 0.043004115295998 0.0331100262945 0.022684812419623 0.011843022172302 0.00038389391457903 -0.011707810715288 -0.02432850238725 -0.037409097931814 -0.051018383358468 -0.065142032908821 -0.079697874558759 -0.095155763306153 -0.11151658974473 -0.12864856074742 -0.14650381902715 -0.16529194595306 -0.18527290714208 -0.20656378171171 -0.22907030959688 -0.25256431915594 -0.27700898128233 -0.30244023846583 -0.22609124027561 -0.19706207816339 -0.16954795801585 -0.1435863532324 -0.11924837662117 -0.096552471494561 -0.075472837281578 -0.055889334111929 -0.037765527530975 -0.021094718388182 -0.0058379917871725 0.0081240354039606 0.020893239265278 0.032513030171292 0.043168169753733 0.052933105290505 0.06178904527492 0.069895535142554 0.077225054243981 0.083925899683062 0.090041166254195 0.095656495806123 0.1007769832118 0.10555418965782 0.10992169928166 0.11393465462504 0.11760371664799 0.12088854506411 0.12381063121334 0.1265933636183 0.12915920847594 0.13158616668995 0.13397726810771 0.1362600792157 0.13833906016204 0.14035204216884 0.14242810055845 0.14444701994821 0.14634883524647 0.14815312788296 0.14982604856401 0.15128236991823 0.1524783104217 0.15346502428121 0.15437546252263 0.15513190695546 0.15550059703032 0.15557019705297 0.15535762276121 0.15486549157617 0.15421225119843 0.15350735673758 0.15285416724499 0.15224956254669 0.15179881939747 0.15148441042813 0.15111042458268 0.15062298193715 0.15005759866897 0.14941913436977 0.14852057029693 0.14742499493498 0.14619336539733 0.1446139162328 0.14257796985748 0.14011220559361 0.13718197033198 0.13370189429297 0.1296633139212 0.12505856647325 0.11979320366512 0.11392124314318 0.10743784756469 0.10047072866799 0.092997118511746 0.085025288240122 0.076442933849725 0.067369201766791 0.057856923168119 0.047897251208723 0.037405683702531 0.026480686784634 0.014942449011577 0.002748368612901 -0.0099635020236703 -0.023153525945838 -0.036877765709535 -0.051117147717784 -0.065806490417029 -0.081388000643815 -0.09790317987649 -0.11519820071098 -0.13323252775173 -0.1522046702998 -0.17240119328724 -0.19393651060588 -0.2167166952935 -0.24049422726137 -0.26523572141194 -0.29097408079678 -0.21438075828701 -0.18498508416589 -0.15714112410785 -0.13087786710529 -0.10627383265612 -0.083340678923416 -0.062053800979505 -0.04229987756724 -0.024027101388798 -0.0072198833626224 0.0081411072797152 0.02219790927338 0.035049946733156 0.046740577614823 0.057466836967338 0.067280899107699 0.076191320293142 0.084337349945151 0.091704411995214 0.098442310291939 0.10459562762452 0.11023778163621 0.1153890551152 0.12019331573738 0.12457641663096 0.1286223367189 0.13230309427915 0.13558899966541 0.13851461311193 0.14130491090441 0.14387506011207 0.14629558083901 0.14867337067329 0.1509475195049 0.15303349249433 0.15504276798341 0.15710410049989 0.15912730450038 0.16102010247113 0.16281336640628 0.16449110610935 0.16593354782308 0.16711458685015 0.16809220044891 0.16899122990153 0.16972944391617 0.17011543584141 0.17018199002031 0.1699681217201 0.16948652238334 0.16884525322396 0.16815318144375 0.16751615250945 0.1669409596345 0.16650427228385 0.16623753854672 0.16592112439562 0.16547799794051 0.16497097012832 0.16440571023872 0.16355803858351 0.16253234464739 0.16134830075009 0.15981898282215 0.15782277052627 0.15539509798502 0.15249318130069 0.14904046597138 0.14501193686761 0.14040529509666 0.13512287125673 0.12922969507633 0.12271510827941 0.11571812576945 0.10821676834591 0.10019675712704 0.09156268677277 0.082416801439413 0.072842323535656 0.06280738865692 0.052251195751074 0.041247935350444 0.029632801179917 0.017341089417828 0.0045320658996926 -0.0087635202517487 -0.02260709534964 -0.036961125957323 -0.051781785350774 -0.067494110111058 -0.084163674547206 -0.10162461695625 -0.11983671932148 -0.13899750931191 -0.15941085975616 -0.18119491661486 -0.20425180445704 -0.22832006017405 -0.25336035932451 -0.27940877971261 -0.20258336740284 -0.1728149375903 -0.14463497580169 -0.11806426273023 -0.093188563204376 -0.070017793340416 -0.048523339870758 -0.028594295400397 -0.010172238978491 0.006769766970771 0.022235647641166 0.036387852864666 0.049320633541882 0.061080228410287 0.071876856745529 0.081739988273019 0.090704913025156 0.09888950294363 0.10629572661422 0.1130710920655 0.11926363050949 0.12493441177475 0.1301172589481 0.13494457202928 0.13934850517583 0.14342249174285 0.14711315826134 0.15040011913973 0.15333205136358 0.15613390453345 0.15870261020198 0.16111870600834 0.16348008033474 0.16574631387334 0.16783820841853 0.1698469281024 0.17189893424621 0.17392093189809 0.17580179065011 0.17758677730649 0.17926675978347 0.18069723528483 0.18186420014034 0.18283107642973 0.18371374438837 0.18444039765464 0.18483897118395 0.18490358512299 0.18468901756341 0.18421568062402 0.18358680004088 0.18290831769904 0.18228490870856 0.18174526620968 0.18132805542637 0.18110417111064 0.18084270132166 0.18045079846386 0.18000328110477 0.17951502741316 0.17872106206646 0.17775934811235 0.17662413835271 0.17515039279168 0.17319476294404 0.17080501778106 0.16793028258264 0.16450494586279 0.16048831108156 0.155877518803 0.1505836005183 0.14466725757331 0.13812276680106 0.1310924963873 0.12356328653048 0.11549721238838 0.10681323523945 0.097594410638649 0.087953413661915 0.077845803480759 0.067226102180859 0.056143008131385 0.044452038106783 0.032064946481812 0.019157159058166 0.0057563081695769 -0.0082082172639831 -0.02267250007294 -0.03762783858078 -0.0534719815625 -0.070299528029883 -0.087927292486354 -0.10631832947803 -0.12566360631587 -0.14630169138406 -0.16833951334324 -0.19167704880355 -0.21604228925581 -0.24138405212703 -0.26774173828028 -0.19069786208195 -0.16055250012603 -0.13202997754831 -0.10514686373858 -0.079994373958966 -0.056585680834167 -0.034881462955174 -0.014773760074425 0.0037976018615196 0.020872957231741 0.036445836302987 0.050692112858012 0.063705230905997 0.075534823650329 0.086399110216995 0.096311997698966 0.10533087106357 0.11355266113488 0.12100280150195 0.12781039997216 0.13404667139814 0.13974456753186 0.14495875953592 0.14980758037397 0.15423279970821 0.15833560979234 0.16203742531695 0.16532698483733 0.16826824768182 0.17107665397541 0.17364734698125 0.17605165313384 0.17839927592195 0.18066605192289 0.18275607310645 0.1847673103967 0.18680928005745 0.18882782464997 0.19070026003887 0.19247960783749 0.19415439084517 0.1955814015906 0.19673146337059 0.19767904880158 0.19854775802282 0.19926768442209 0.19967496560829 0.19974049830134 0.19952422110336 0.19905339693249 0.19843440095907 0.19777243107238 0.19716438363172 0.19666108735966 0.19627064807919 0.19608352992904 0.19587586975498 0.19554534427166 0.19515923695599 0.1947455483489 0.19401897582433 0.19310818018028 0.19202702674895 0.19060688478028 0.18869567500461 0.18635110073327 0.18350637302457 0.18009697895703 0.17609277092915 0.17148502748796 0.16617792358022 0.16023858238759 0.15366194598295 0.14659237612787 0.13904101782546 0.13092468571685 0.12219149690858 0.11290832595729 0.1031962632662 0.093015078996232 0.082327289724216 0.071166970015879 0.05939758693206 0.046920284404725 0.033913484152859 0.020401587029233 0.0063164720829546 -0.0082568727137904 -0.023332861990622 -0.039318524579605 -0.056303850366826 -0.074102566492558 -0.092677761465708 -0.11221197695188 -0.13307583757495 -0.15537052486806 -0.17899459335266 -0.20366115838674 -0.2293100699966 -0.25598355243026 -0.17872669618531 -0.14819890588231 -0.11932733917494 -0.092127276863849 -0.066693240527895 -0.043044503076562 -0.021128540319424 -0.00083907507147528 0.017883039567209 0.035088681128118 0.050767984566318 0.065108253014257 0.078202898115349 0.090102192613592 0.1010326305697 0.11099621280842 0.12006688847454 0.12832716887376 0.13582367870856 0.14266525704261 0.14894357492013 0.15466790538839 0.15991488134708 0.16478113972427 0.1692310587431 0.1733600896383 0.17707753697662 0.18037553853673 0.18332515303282 0.18613935830511 0.18870691546933 0.19109744027355 0.19343747166702 0.19570604981222 0.19779356117447 0.19980777666574 0.20183283815351 0.20384903291056 0.20571812741414 0.20748837684739 0.20915639235015 0.21058386060464 0.21170967734985 0.21263837290135 0.21349666119716 0.21420344674006 0.21462610827049 0.21469438138301 0.21446817208984 0.21400145073776 0.21339701335649 0.21274689830258 0.21215810748832 0.21168816040101 0.21132045634344 0.21117795218062 0.21103125685128 0.21075834121119 0.21044308001581 0.21009788164886 0.20943665074095 0.20858424498866 0.20756350515984 0.20619256311887 0.20433125826504 0.20202973363024 0.1992032526607 0.19582367999605 0.19183122397532 0.18722122499608 0.18190472136281 0.17594129556237 0.16933405572687 0.16222441532398 0.15464977554712 0.14647891736092 0.13770339744155 0.12835265518883 0.11856933542684 0.10831697259236 0.09755212651915 0.086326104508712 0.074475062160335 0.061907640693615 0.048803232173429 0.03517761186805 0.020978270686801 0.0062900711649165 -0.0089098714384287 -0.025041296578332 -0.042183427349458 -0.060153990775668 -0.078912416028201 -0.098642952242903 -0.11973425061942 -0.14228906180627 -0.16620074584376 -0.19117739169847 -0.21713996020636 -0.2441231736244 -0.16667069843916 -0.13575496392502 -0.1065281297588 -0.079006417955344 -0.053287374398358 -0.029396155904566 -0.0072649922129078 0.013206890594174 0.032079986094987 0.049416608828309 0.06520155245368 0.079637071117133 0.092811064701353 0.10478254856183 0.1157796472231 0.12579252110632 0.13491588479879 0.14321811202944 0.15076125522718 0.15763948196315 0.16395549675898 0.16970842111306 0.17498872246279 0.17987223508698 0.18435476304834 0.18850263398906 0.19223842385697 0.19554345518464 0.19850448842095 0.20131873998601 0.2038870229462 0.20626507292117 0.20860006616271 0.2108719011669 0.21295702137665 0.21496427582296 0.21697472318792 0.21899351933278 0.22085853131699 0.22261742852172 0.22427558787279 0.22569777387365 0.22680308722122 0.22771862883752 0.22856072291514 0.22926091427849 0.2296876121201 0.22975940579449 0.2295262901487 0.22906575710141 0.22847513764081 0.22783719660877 0.22726717037859 0.22682322937975 0.22649135170355 0.22639055430136 0.22630530526244 0.22609051160946 0.22584720301712 0.2255670010679 0.22498824612314 0.22419123401862 0.22322555301173 0.2219133589395 0.22009891761602 0.2178331980244 0.21504346595688 0.21167938853936 0.20769687529575 0.20308604233039 0.1977610885491 0.19177307916979 0.18514241005612 0.1779899148289 0.1703859186673 0.16217511196664 0.1533457249893 0.14392704609568 0.13407311973688 0.1237460915876 0.11290540483888 0.10161751235303 0.089679610328684 0.07702498482134 0.063823966646863 0.050085776822758 0.035770789446011 0.020966557729452 0.0056405047027902 -0.010639443804073 -0.027934523520494 -0.046081665134723 -0.065026339809219 -0.084957643108209 -0.10627875250304 -0.12909835350284 -0.15329868085821 -0.17859251813701 -0.20487280142097 -0.23216861521684 -0.15453130472489 -0.1232202452209 -0.09363231726989 -0.065782142875626 -0.039776912149151 -0.015640434186615 0.006707061262909 0.02736371145091 0.046388257215147 0.063855656907276 0.07974531279177 0.094277804753496 0.1075294515646 0.11957484509415 0.1306371168688 0.1407040336095 0.14987826555362 0.15822051392463 0.16581588397588 0.1727322122489 0.1790829447378 0.18486783634469 0.19017999764257 0.19508779624605 0.19960117068204 0.20376753406934 0.20752193459281 0.21083209673677 0.21381226697637 0.21662156322409 0.21919733113832 0.22156064998602 0.22389015884071 0.226165053966 0.22824785608498 0.23024308496685 0.23224806205038 0.23426388125483 0.23612135728874 0.2378700599576 0.23951949435091 0.24092655541951 0.24202249384219 0.24291949247961 0.24374493216523 0.24443866471732 0.24486983532757 0.24493586227846 0.24470552501488 0.24424942730666 0.24366904676624 0.24304684089317 0.24249560119839 0.24207146446471 0.24178772521137 0.24172608194252 0.24169674104254 0.24155361048018 0.2413744064093 0.24115451288574 0.24066971054308 0.23992831652687 0.23901969855274 0.23776994856696 0.23600076426275 0.23376771467035 0.23102228310605 0.22766998508504 0.22369422139091 0.21909019738111 0.21375247981621 0.20773610605402 0.20108402957577 0.1938877674823 0.18625577670266 0.17801693726702 0.16913086355227 0.15963851860687 0.14970826074402 0.139305193117 0.12839878891818 0.11704232052078 0.10501957222578 0.092278941171424 0.078973594753447 0.065123638127073 0.050692641538998 0.035774665024961 0.020318801783908 0.0038927428659054 -0.013560541396501 -0.031886288254429 -0.051020059478489 -0.071156505760667 -0.092711882786727 -0.1157976385633 -0.14029046473431 -0.16590836643327 -0.19251104232959 -0.22012138637113 -0.14231483887806 -0.11059314447968 -0.080638950552615 -0.052454597945253 -0.026160471798409 -0.0017739967106704 0.020789506914362 0.041631465750959 0.060809754146793 0.078407525427755 0.094401217697499 0.10903048483928 0.12235944241972 0.13447941429041 0.14560453958267 0.15572972180173 0.16495413513679 0.17333804726292 0.18098823540855 0.18794252549127 0.19432744360223 0.20014720223711 0.20549432465975 0.21042359321412 0.21496810840043 0.21915458895222 0.22292609421848 0.22624263949456 0.22924392658194 0.23205213980238 0.23463162948601 0.23698481212897 0.2393132040033 0.24158103418083 0.24366394507143 0.24564678409462 0.2