# vtk DataFile Version 3.0
d-3__ created by libgimli-v1.5.0-1-g5991b6ac
ASCII
DATASET UNSTRUCTURED_GRID
POINTS 1483 double
3.3802423101098	12.435481574566	-0.57001420684378
3	12	-0.2857142857143
3.4959596309848	11.998298039034	0
3.2490070092203	12.168560129388	0
6.0395510135596	13.367156253372	-1.2757999763971
6.5930002103947	12.023472734859	-1.2922192071349
5.4998599382803	12.552571297657	-0.59337769664261
5.29662096318	11.932351047571	-1.5392209346082
5.6153020589615	9.1440579133635	-1.0774777831171
5.7237069713611	8.5589744845549	-0.30827017969781
5	9	-0.2857142857143
5.3151026533923	8.4249591108801	-0.38240156963578
2.3178923476779	4.1926464382665	0
2.5373292327812	4.4716333182052	-0.48281884804687
2.3342974478463	4.0018571812202	-0.30572640106363
1.9994701911036	4.4258543307655	0
4.8968211033092	12.507755029533	0
5	12	-0.2857142857143
5.2932790228536	12.494788035524	0
0	0	-0.2857142857143
0.54768630893449	0.55020446432687	-0.60775225926193
-0.16846798780902	-0.24002860812406	-0.65332445545953
-0.28063481777066	0.41453578455018	-0.44890469943706
7.7	3.575	0
7.3102059000399	3.7470939102263	0
7.7	3.6732286664853	-0.53772532608145
7.3176226410905	3.2857280588852	0
-0.7	-0.10798167686939	-0.47517111104905
-0.7	-0.57707899562378	-1.1376990549501
-0.7	-0.61986630133594	-0.43486724047509
6.3962361866998	10.611290418241	-1.3182185489848
6.565939673393	9.5694509864085	-0.57379796778735
7.1295911592009	10.496363016677	-0.48219980545192
6.3839624611364	10.341052129245	-0.35036617584397
7.7	14.3	-2.5
6.7623683783591	12.987112326146	-2.233077027779
7.7	13.059020885286	-3.3539705522597
7.7	13.327367479896	-2.129915020979
1	6	0
1	6	-0.2857142857143
0.93236760237426	6.49128333619	0
1.3454573625665	6.353105459937	0
2	5	-0.2857142857143
2.1684298754346	4.7403793023811	0
3.0226729813355	8.4836106439452	0
2.5164096947204	8.910651700233	-0.41109082170818
3.4071201441719	8.4167381876838	-0.59109415332551
2.5374808587914	8.1383747261781	-0.35604109466584
6.2778911301719	14.3	-0.61136458754231
6.2225356773765	13.691717475418	0
6.5208076177088	13.495118289851	-0.49928801204061
6.7358646795693	14.3	-0.39005656748015
5.7965188279432	13.281940723964	0
5.5320359851605	12.925291312368	0
5.353113789845	13.264183036004	0
5.5919457801018	13.101154188917	-0.33537516396337
7	10	-0.2857142857143
7	10	0
6.5010306427949	10.010760669106	0
6.8196744207924	9.5136576917357	0
7.7	1.1375	0
7.7	1.6430719769933	-0.42557297445049
7.1939383721229	1.4724531054162	0
7.7	1.625	0
6.3572581294301	1.4772201134971	-0.96507376287322
6.5574763981385	0.84898833643366	-0.48332647821142
6.7774291048203	1.7003141153393	-0.4123635555875
6.1433933962903	1.4220674799247	-0.28622251631329
-0.7	9.1984657118068	-1.9278839451739
0.33291529395702	8.3305676904572	-1.2970017952003
-0.7	8.1442617177323	-1.0898260028896
-0.7	7.644268062563	-2.0766032868031
4.508194357046	8.6258793740749	-0.60770874662543
5.0095189690676	8.5009469809039	0
4.7609249278557	8.7686419230913	0
6.2306672701993	2.67753718	0
6.6360398560532	2.4670661479797	-0.44686919005428
6.4910302172834	2.4939022421641	0
6.1550873755842	2.4572757142813	-0.33684154297057
1	1	0
1	1	-0.2857142857143
1.4901571161019	0.99574153349402	0
1.1736530561382	0.72346383359363	0
2	4	-0.2857142857143
2	4	0
1.6440539242474	4.1532454240512	0
7.7	6.9501255673919	-0.74418826283982
7	7	-0.2857142857143
6.7521552376889	6.497772044976	-0.66059363300197
7.7	6.3887218416049	-0.46884913673037
5.9482896260331	7.5800048202495	0
6	8	-0.2857142857143
6.3095291646476	7.6896230263426	0
6.1432247512519	7.3579252770212	-0.41388970597853
3.501272057481	12.437082442362	0
3.3297831413816	12.805427976196	0
3.6823393063421	12.851671876304	0
1.3671388209093	10.633374397873	-0.4152980605108
0.95248763025238	9.835503527633	-1.7808732395437
2.3518021577517	10.495200039554	-0.50930668321109
1.5373497846005	10.021005779616	-0.41781002197689
6.2054585007625	14.3	-1.3884356875417
6.9442913034148	14.3	-0.89278753613404
1	8	-0.2857142857143
0.54167473049383	7.7707286368021	-0.37916050195481
0.44975345341211	8.3808810318019	-0.31136669048163
1.022076618805	8.4121844676845	-0.45670843222423
0.89173681858685	4.6122796653579	0
1	5	-0.2857142857143
1.2386083631299	4.6841794176855	0
1.3923592539172	4.7130963353432	-0.25978315417498
6.4242299347383	5.6840176993625	-0.35514079575845
6	5	-0.2857142857143
6.3424541740313	5.2754910113697	0
6.0447933133998	5.5049876953384	0
5	2	0
5	2	-0.2857142857143
5.5190673049038	1.9208326821789	0
5.2306444928855	1.6547875838902	0
5	13	-0.2857142857143
5.257359886178	13.540476325965	-0.63012071696907
0	6	0
0	6	-0.2857142857143
0.066757795936057	6.5008369551487	0
0.29243888553297	6.1743316976873	0
7	9	-0.2857142857143
6.5033796411008	8.9981073418213	0
6.5607922823332	8.4440251373986	-0.63122800754088
6.811726958696	8.7028726276344	0
7	5	0
7	5	-0.2857142857143
6.4986646723997	4.9192017057136	0
6.7141996182955	5.3303468264748	0
7.7	9.5988491781319	-7.4736716195817
3.1507199964473	10.394874003632	-10
4.8663216648816	7.3792654266676	-10
5.1015502438684	11.553440122249	-6.405163284031
7	7	0
6.9589015254993	7.4884372736447	0
6.761634669635	7.2408783569561	0
6.0574437090791	0.20878539066113	-1.8779478182653
4.9838025543493	-1.3	-2.1179854334408
6.0308685444023	-1.3	-3.5425074203685
6.440522236286	-1.3	-2.0103523001383
3	2	0
3	2	-0.2857142857143
3.0105846506	1.4855923993349	0
2.6480485575569	1.6700894103009	0
5.0527203000088	13.535479310798	-1.5373151531841
5.0246691847863	14.3	-1.036131499603
4.1300067609037	14.3	-1.2024507502556
4.4744197407865	13.547407617085	-0.63586628370479
2.5813517996865	9.6286485974984	-1.0236151505326
2.2955236368793	9.5881134365907	-0.29154811067367
3	10	-0.2857142857143
6.4248505083522	12.522044346884	-0.42559946143008
6.465073985677	12.51782996062	0
6.1644652963082	12.36965297069	0
6.3832046574853	12.135664356038	0
2.9908655166747	12.498069465114	0
1.984703560175	7.5906357794687	-0.50777967523709
1.0508409188237	7.354634772545	-0.95680796450018
1.4515039911109	6.5829264157992	-0.56173008002516
1.3866216751759	7.5118935788728	-0.35488362790971
2.45	14.3	0
2.2168273415577	13.627179222019	0
2.4554693735383	13.497784276817	-0.39727655195048
3.032551925238	13.762466584345	0
6	11	-0.2857142857143
6	11	0
6.4843452951013	10.966514281357	0
6.2440599782187	11.234710090977	0
5.5	-0.5576923076923	0
5.247952850371	-0.29481663567353	0
5.5452342683804	-0.096294524539033	-0.49623355575102
5.1016398375367	-0.61489919294387	-0.38960315167385
2.3232496140345	4.0110297188843	-1.3835068702753
1.6586320571652	5.8268322896535	-1.5213554090482
0.71002746520551	3.976198472286	-1.505315421377
1.3296414347056	4.9089994064226	-0.82629172929831
5.6	14.3	0
4.6510156691765	14.3	-0.56274723813486
-0.090060726359069	5.5363033123106	-0.44581840212762
0	5	-0.2857142857143
-0.38456492153953	5.1805342841446	0
-0.7	5.0205501441189	-0.32507149572551
3	13	-0.2857142857143
5.1848675157348	3.2965660830064	0
5.4046165570399	2.9501485228537	-0.43988698776777
5.486289771732	3.4981838484395	0
5.4682750147717	3.0660382780841	0
0	8	0
0	8	-0.2857142857143
0.5178658825659	8.020802151125	0
0.25864598874121	7.6639427314904	0
6.7098208972434	7.2950601162224	-1.3269022195366
7.7	7.949747446039	-0.91833665053736
7.1577047253729	7.4844276204668	-0.64272934527953
4.5892004575887	3.5369189576522	-0.55981654583505
4.4420188491858	3.4660037233365	0
4.711527897636	3.7375259681419	0
4.3494632088922	3.8023533541114	0
4	6	-0.2857142857143
4	6	0
3.9913416390327	5.4988534517732	0
4.5093195747582	5.724109532591	0
1.4	14.3	0
1.5	13.55769230769	0
0.89284349994875	13.714781914708	0
1.2292962491126	13.670420041977	-0.37788942865261
4	9	-0.2857142857143
4	9	0
4.5502440226935	9.051086551406	0
4.2963154051231	9.3907765114078	0
4.5321110402369	7.5028925212181	-0.60552533206341
3.5085861108931	7.3893844432383	-0.64873189634878
4.0050480592533	7.4977657988521	0
4	8	-0.2857142857143
5.8961095330637	-1.3	-1.0125722125019
4.8982045728458	-1.3	-0.82217786726149
5.2296982103621	-0.31621891710017	-1.0679345669244
4.9010483556055	1.478997710586	0
4.5631533182214	1.9074133665015	-0.41231302454656
5.0320642355688	1.4518180616801	-0.36509190625555
3.5357179442866	0.46434418042464	-0.60031716899974
3.9407498163335	-0.4411178910574	-1.1087857494349
3.2826824657074	-0.47747544834602	-0.50866572047373
2.802260468126	-0.22902113419037	-1.4542342115515
1	13	0
1	13	-0.2857142857143
1.1191337005982	13.329221525091	0
1.4884720276527	13.02962190928	0
-0.21681247778723	8.5792000107362	0
-0.35118339610893	9.0917088673227	0
-0.7	9.0968147603684	-0.35256881313688
-0.7	8.9375	0
0.51662331659314	-0.40156299802931	-0.67799391089861
0.13474046208011	-1.3	-0.85683826964205
-0.16941603187845	-0.57512411281067	-1.4019543009948
6	13	-0.2857142857143
6	13	0
5.8068477026831	12.499749736815	0
6.1890713266052	12.67695534294	0
2.5984255358496	5.4578875982232	-0.67264342113488
2.2172109403706	5.4325217687574	0
2.4824672258873	4.9705265694472	0
2.6598112065826	5.3330483814808	0
-0.7	0.5146532048839	-0.51418317722913
-0.7	1.0492756199945	-0.88024243711367
-0.37698118088761	0.89350663208132	-0.33360419980628
-0.25096134668857	0.95145340086689	-0.90448711690516
6	2	-0.2857142857143
5.4002158317804	1.7678073061348	-0.50898482673054
5.8183999242367	2.5164331321023	-1.0840550371572
-0.13917028340788	5.5182991349521	0
0.31578338747353	5.7567158690792	0
6	12	0
6	12	-0.2857142857143
5.513035862904	11.994753403328	0
1.5285536174902	4.2362319729344	-0.43851980589517
0.57100063419133	12.499134596467	-0.56842257570583
1.2565986295401	13.42724014175	-1.149557674079
1.4486633887383	12.69302170761	-0.31714242590465
6.65	-1.3	0
6.903739311401	-1.3	-1.0953527719967
6.3980205255852	-0.38130956989248	-0.5855507841991
7.2175457166608	-0.5710098692386	-0.51938212652516
3	7	-0.2857142857143
3.5055774955602	6.7395375676091	-1.4094768265058
2.383927159844	7.4535505157878	-1.0620490471275
1	4	-0.2857142857143
1	4	0
1.2222221827385	4.2954008280594	0
0.82345085295407	4.2815033897546	0
5.6	-1.3	0
5.790373644402	-0.65252487431205	-0.38521635467031
[...]
CELL_DATA 5483
SCALARS Coverage double 1
LOOKUP_TABLE default
1.5034005927179 0.73855754324891 1.3955682106352 1.5637129440676 1.4383108113414 0.86486274235928 1.132578770156 0.65152694187319 1.1017656039516 0.20207630209904 1.8349661777733 1.6514723326642 1.4894272712447 0.71286094611498 1.2452024626004 1.7814071554256 0.97152799430468 1.1337521651117 0.60052639287522 1.6436625866158 1.4341221336439 1.6989859525064 1.88441255898 1.0566729587073 1.5820230103332 1.3902712765156 1.2412392867773 0.57350347058535 1.3101343057046 1.6442558244668 1.5496063292783 1.7712722051583 1.2026239257927 1.7830445799699 1.4719341147886 1.7624104381209 -0.38855311579689 1.7909376723359 0.24315124630059 1.771080522779 0.61278464340529 1.3716509656631 1.382336499365 1.461972785429 1.2740581206329 0.88791097183125 1.8206658568457 1.0320459018618 0.93247602779659 0.56154099293496 0.67980054756431 1.266883293414 1.3787012379016 1.5142621821527 1.4329465124649 0.94525278049637 1.4372136988332 1.8378470163286 0.85510710675008 1.8304504507021 1.5128370475717 0.60528999241802 1.4189495919629 1.5235221756437 0.70378403636522 1.5836963050215 1.1397124047192 0.62218249259904 1.7024142008082 1.5576946512304 0.81979516501663 1.079199248823 1.7683291957026 1.6880713187542 1.5311319837675 1.0321567309966 0.61952477391772 1.2566986457786 1.9302805081492 0.63020289804881 1.1564865042303 0.79339672072827 1.4998308051293 1.2171133371297 1.5013857917151 0.981263603693 0.60080950920243 1.854411748024 1.7617884857419 1.5527774329459 1.1595973662426 1.1981410170933 1.2619791992644 1.2156519311009 1.4601530696794 1.6143208341184 1.5872996073054 0.97226944080357 1.6351703235691 1.662232551078 1.2951135133778 1.8049837137706 0.94509966366769 1.5935644998795 1.0754717937525 1.5334612699086 0.30783535820593 1.1160940065211 1.7853224292789 1.8739382522025 1.5536244010817 1.2887669547504 1.4670224193415 1.4037268943438 1.1574836155172 0.73751728331611 0.93799741519972 1.0198940711527 1.562857579899 1.1972549658634 0.95296474676876 1.6074301562567 1.2401441803001 0.42050094731417 1.2306409227001 1.7786559402257 1.0505512465026 1.8060287122442 1.330040833768 1.5233640674787 1.4979032611075 -0.22546246610073 1.06009154915 1.3974852473612 0.80813460323537 1.5846261579737 -0.42064878968048 1.3457473750705 1.3298833249421 1.8654891726625 0.54969146130729 0.1526565476622 1.7768285629251 1.6847172750659 1.5030044425372 1.4172633990738 0.86046548097732 0.65562589555249 0.89878674022261 0.58503501227768 0.36856615874124 1.852922796781 0.80964566219514 1.1985895943281 1.383619407931 1.640727179036 1.4521203445544 1.0519044242003 1.73529296992 0.77992786525873 1.4345078789849 0.71649506583259 0.92735774264649 1.5781043442913 1.8643392918647 1.6386501926053 0.58920527565668 1.7992091329802 1.4268459454643 1.8035486115075 1.5864059297454 1.1710512112761 1.2541022065416 1.8292141445587 -0.094671947590424 1.8634130869886 1.9097701873468 1.7611431173108 1.6931954988189 0.16506757379674 1.5490267910438 0.39284318865288 1.1180554481334 -0.095773140140455 1.2249331822111 1.8520127761501 1.4022207171162 1.5622057732654 1.8240119725251 1.3302670166001 1.8488253790613 1.3223185533268 0.73246224670097 1.5959111583359 1.2605246599233 1.0698285415144 1.6439968909821 1.5347128307394 1.4006148409218 1.8650728421205 0.51629502130548 1.8993418779793 1.4118000493675 1.4950368283296 1.9156937690359 1.6592675056697 1.7149606519157 1.4652138029435 1.0709065341304 -0.45165824463603 1.3812027723419 1.073245021142 1.1744371146297 1.8891783116214 1.8555575144975 1.8663760644398 1.8499837323801 1.6032106845751 0.85506048945326 0.84842056278244 1.3716455323615 1.7245007589159 0.54642748503664 1.8725580256263 0.7179079214458 1.6876046605408 1.5328322713112 0.85487686285223 1.9266533699345 1.1541836277959 0.91563194843419 0.87700198390281 -0.15267438302846 1.8597510989472 1.4399719434872 1.1619411016307 0.5529801740766 1.7487497683787 1.5552652398385 1.5364940606902 1.7672159056109 0.69810375295347 1.5864533135736 0.9586008255598 1.5733478836678 1.8470127051068 1.3250516833114 1.5312516677767 0.51803343851556 1.6085968726197 0.68490445416565 1.679073283715 0.45544562802352 0.20782673293708 0.014700949697624 0.44598838201126 0.87373776211847 1.8636492139374 1.3092593956304 1.8750601117082 1.0356849786854 1.0505155303041 1.4194212186855 1.3475405406562 1.7567592788398 1.8349759378001 1.450907422547 1.8651214701117 1.5371294904367 0.72092659250887 1.8582366642081 1.8945065874423 1.5594196376641 1.4190520986535 1.8476936205827 1.5528182604775 1.8544930360714 1.5833469529363 1.5691331938186 1.7279122546715 1.6383641696308 1.934418736705 1.4297465028315 0.527222572498 0.50054958370508 1.267363557394 0.9587420183317 1.5868481581366 1.745579471366 1.3058144564762 1.5357925942989 1.8497240533403 1.7253762154944 0.56491717820317 1.4121548155679 1.6920173481811 0.71952599451493 0.25805286025 0.83721543539183 0.49967763755094 0.44635224126719 1.5656723452263 1.3990258655158 0.99592947400623 0.81199094164085 1.1004172985504 1.6145174157735 1.3039893466983 1.5331362562771 1.1150686960895 0.73174040992687 1.5822257847693 1.2623947801469 1.2538235773746 0.63699657085321 1.1559965508067 1.5204813766003 1.0759117079476 1.4404384934503 1.1483247498056 1.8178340423065 1.4972918372072 1.5289400746388 1.4113569172217 1.9110033856479 1.2601939290676 1.6995230064951 1.5484110970206 0.46047534731077 -0.63717719802843 1.6256934214312 1.1998959336395 0.72268172369975 1.529025458453 1.4537090185595 1.8048789023635 1.8782811814239 0.94732942475259 -0.58385666065144 0.84495944085492 1.4146110750526 1.2156988468369 -0.25329682983978 1.0379470588044 1.0501966452285 1.421692690737 0.87051779485632 1.5478566338423 1.3640366689185 1.2388964451741 1.5287922969758 1.7221690985482 1.786426317366 0.60145676068146 1.8805080542708 0.99776713734666 0.10239316849441 1.3025789606404 1.7045713867499 0.48096071757104 1.3063076491501 1.3687526001189 0.70794594510011 1.3790556123318 1.7468868998569 1.4709921690544 0.8728073130562 1.7735299552114 1.6769351911199 1.2032781868278 1.3166814781715 0.96865162639541 1.4683280261171 0.26315955704134 0.57298771466161 1.14230245253 1.2959622226329 1.5233906594688 0.76169214396494 0.32476053089815 1.8299026021331 1.8898722656188 1.9060235021681 1.5977605619312 1.3430784965492 1.8585566339819 1.8100565247604 0.57514401077915 0.8337927912393 1.5234086954353 0.99413993710235 -0.23176433912842 1.592129934322 1.4039593091345 1.3701731909291 1.5850010309255 1.6052177412184 1.4676393432405 1.3821307768742 1.543452725823 1.0442066992444 0.83131204313551 0.82111022943234 1.7596947727958 1.9249166380884 1.2365289075566 1.3441207802218 1.7211633954954 1.8519248974175 1.2771876898755 1.4315626845382 1.5101828415631 0.64975562036812 1.8233712845519 1.408537455352 1.4425488111447 0.92078299955077 1.5586454256396 1.8449947248308 -0.40152342647219 1.5526377416763 1.5196924477416 0.52622261362975 1.3899227530425 1.3541942811184 1.0390802765365 0.19526955577136 0.11977837754826 1.5841188195494 0.30459170180213 1.6854653318187 1.2634632972754 1.8192004486542 0.87697921523523 1.7483450122759 1.4039616551633 1.7369061866116 1.8011655470775 1.40662898508 1.1979875490804 1.4272818323791 1.5697218918593 1.2695217499096 1.7298794535456 1.8299771248517 1.5604567126241 1.135799913847 1.2743736110077 1.2020321599366 1.2370857200202 0.89960115399236 0.69028070808097 1.452324932852 1.5218042475257 1.6008763576987 1.4604459153776 1.8837165715563 1.3788621541784 1.6900918936998 1.4938613213862 1.8874286650221 1.2410862099657 0.98828052491329 1.5936987498761 1.9114086912575 1.4947659319392 0.867138088565 1.3428572424165 -0.24854747657222 1.8441930884361 0.45423516101517 1.8032096253394 1.477315646813 0.22278611293 1.5580914152437 1.3066022291642 1.0670013555338 1.4967655324181 1.7235818102399 1.8437766674679 1.4321362401085 1.444148000053 1.8064125827336 1.635635226498 1.3675694454198 0.70244079370225 1.5883202503518 1.5492742818289 1.5256237532229 0.6521837098696 0.42810113657379 1.4298458112242 1.2268759043144 1.4993044052198 0.82948739635633 1.8549419225591 1.4362067019659 0.81396706858502 1.9260935443263 1.4256504141636 1.0460738646696 0.62377288394932 0.8238835791561 0.98714439850698 0.51641552439329 1.7006123092487 1.595752630167 -0.023700428233299 1.3192313576793 1.1587006126281 1.446851684242 1.3517483771135 1.5327191178077 1.5097345159097 1.8013546795034 1.0339875418979 1.5857661180297 0.74351147165286 1.0721362572202 1.3833327769241 1.5859213428668 1.0940692941071 1.7782123885322 1.6141708735349 1.3059797087077 1.5873305084608 1.4285725554164 1.670219315468 1.5644905779092 1.6050177280376 1.5659743892103 0.40350580279661 1.3080671720869 1.4294676712074 1.8169254683509 0.76509468862125 1.7927702767319 0.75104111536324 0.88557342456876 1.3323776573291 1.7901379069927 0.86159775911028 -0.70847543901665 1.2563525053017 1.5332517759952 1.2662349856575 1.6951694941053 1.4673020240154 0.65141002252629 0.8144928479597 1.8263378751492 0.92379367612654 1.5880101594343 0.83253404176159 0.58745578880092 1.3457392264026 0.55993455120031 1.5560152599732 1.5892801731951 1.5299361381098 0.017562070974749 1.1082545873734 1.6977535169129 1.1946987468162 1.5255586241116 1.4253817879441 1.3842122254058 1.4350923423612 1.0575339398445 1.5898876333095 1.543188815532 1.017204191076 1.0830220221116 0.23192465704548 1.8832813958569 0.91649732038037 0.32197179028338 1.7425696540103 1.3270783952503 1.6192196164001 1.6937173114372 1.6783998508097 0.63789206773504 0.84722733782855 1.5939724432977 1.3862858413462 1.6602929847517 1.1353823476276 1.4786400472296 0.75043801455976 1.0527892164247 0.82520620347709 1.5091506636893 1.2354594859678 0.67030197953418 1.862839140288 1.6464024873498 -0.56881979410724 0.11944262749271 0.88847362143502 1.6243717969204 1.5540439054935 1.5412974141642 1.8390995108789 1.0880823195879 1.4334009752378 0.59976349532441 1.6832413069369 0.35909895169572 1.6643418108295 1.0974534604349 1.5788115688649 0.89559288458781 1.5918585523791 1.5031571851516 1.3527387608294 1.4330744814233 0.346000222008 1.8670423085682 1.140840201614 1.4973337968254 0.43947735554672 1.4517636874732 1.5667372440658 0.94602660691862 1.3428949990343 0.86602351186908 1.6928796981244 1.076439808468 1.4739650131433 1.3787149864945 1.2637757344308 1.8648889294474 0.66908605023983 0.39608185319862 -0.55945247350199 1.7776689615478 1.1181907259955 1.0501474973564 0.75039827672459 1.8103905935103 -0.2152459183896 1.6238781910293 1.5687572405983 1.0863138214414 1.0311001314056 1.7773723106032 1.8661584939672 1.4689258096813 1.5230050136815 1.7905242236617 1.6885880671962 1.8465530307171 0.72599878444919 1.3425644788004 1.8512650110741 2.0444059941935 0.67532142136482 1.4299375881541 1.35948696142 1.4612649909457 1.5706472177024 1.5948788615473 0.60614489758101 1.7394082768714 0.67451888495808 1.1267716299525 1.4778400624578 1.9205859973715 1.1142927357655 1.4141385655289 0.093480849233382 1.679793759185 1.6524509503168 1.1355869148749 0.26284804116759 1.3985150132516 0.70337187911385 1.6670838443403 1.1617881241139 1.5132820539709 -0.37781035202873 1.4371270278681 0.65658390029268 0.75872726905951 1.8613849084446 1.2740333247238 1.3029530507385 1.5400251838188 0.44434975152069 1.8728550598627 1.8561657958122 1.5157782903971 1.8287650481425 0.65113385770394 1.3586684345653 1.3076113632769 1.5200289570312 1.0229608060723 1.7962095192827 0.49435625804983 1.2636900585165 1.3819729017475 1.1783712532216 0.79270860447917 1.7754195400988 1.5520697426695 1.3313151909954 1.3577149806441 0.69909527567502 1.3859224093587 -0.43534363834059 1.5819411513741 1.0025886707095 -0.30812350165241 0.24670488124502 1.5392539045431 1.6795299702135 1.1462865619395 1.3732541618317 1.8550670478409 1.527401933462 1.0678019570629 1.6194305611615 0.91781571764991 1.1674276642821 1.4441638637428 0.9651947097075 0.33126550377021 1.2579139696548 1.4515633658578 1.8607645381484 0.74679440795578 1.6518725552311 1.5318273696521 1.4464759438389 1.5674192332115 1.586612739588 0.18604802556779 0.98311535617647 1.3176846949607 1.0235343261021 1.2327833656054 1.1224607800004 1.7719165365932 1.0457031171529 1.2412930422826 1.455796307998 1.7765497382689 1.7402995718739 1.7375340518805 0.62732078042982 1.8683687104511 1.4667477306729 0.7442571315353 1.1874545876894 1.4903312782269 1.4339577729755 1.0997543655588 0.83059024213483 1.4451457312009 1.536444038005 1.9200461676569 1.425321089729 1.2985679001265 0.77335564408563 1.4027543959997 1.5558481479395 1.5795485961081 1.8202083309593 1.4030145544001 1.4946663327227 1.0822011132608 1.5434018233801 1.5906985600749 0.82018330862112 1.8892633708558 1.3930429651578 0.55300183984375 1.5993907635744 0.87505544214561 1.5167325366861 1.2091594683127 1.7231894580758 1.1997034427658 1.2032419400645 1.5677874124225 1.1360073366279 1.6443960837978 1.8550587585271 1.3177811362962 1.635365185598 1.4498755704948 0.4711262200369 0.98223807206897 1.7820539140134 1.706759497111 0.09541874293105 1.5924832769866 -0.57443835978463 1.3890016813022 1.7212668922699 1.2952634426621 0.60609578588941 1.7721839321949 -0.72381933077281 1.7246741585144 1.3222656029953 1.4323070974401 0.72307376102914 1.1665383609944 1.3824686971263 1.0333470874901 1.455459121466 1.0669441408793 1.5637488044579 0.76374027728163 1.4127556117429 1.509396606625 1.2102488916229 1.3271881333443 1.5778788036566 1.5560693350584 1.4585385750672 1.0817018651224 0.61245283246142 0.74683326718614 0.60888066790489 1.5299674512874 1.5680623747927 1.5813821678899 1.065403148262 1.6775232064327 1.4941222720088 1.0904309142296 1.586565253687 1.4448732817494 1.5899249571657 0.50307453017024 0.96472161515188 1.5991633403616 1.268386418441 0.8921866501171 1.2894654632602 1.3457957647283 1.0511485907294 1.276361632571 1.5304090840146 1.500994659455 1.1962376582329 1.8639358517766 1.8240870046379 1.0755351855068 1.2911013060852 0.71256642538253 1.3358540308811 0.66112010904504 1.6406025706952 -0.21913359475472 0.65801191142366 1.538222259457 -0.29316420987015 1.6535580235936 0.68652645462579 1.2826444881811 1.3077399923958 1.4218777177391 0.81311934819863 1.4004910791843 0.44518429313677 1.2463485765725 1.5742047315593 1.271263822205 1.5389625671914 1.4918402520737 0.94040677025334 0.78848575018363 0.38724698164956 0.77565561023381 0.50593036099809 1.8275969847993 0.43901306711525 0.92087392874618 1.5200180387552 1.2854561184375 1.5305789211767 1.6635645872045 1.4679355399788 1.578045184508 1.2293890772942 1.3815363119352 1.5165903864577 1.5368946528127 1.6935396410552 0.54415268700476 1.5669534230463 1.5597388165213 1.1622517206438 1.1389013783832 1.6474948708065 1.8948744022423 1.5991536970417 1.7189649161192 0.6538635348148 1.2371439510615 1.8118813748277 1.4735114288212 1.2845971829155 1.6639822468227 1.0077621101955 1.3709349487011 0.39707675075187 1.743394886232 1.2433888369653 0.67171216748969 1.4621225916383 1.5104346922539 1.4115757986678 -0.17645373371217 1.2816913678809 1.5783796564819 1.8645273327185 0.31960858137809 1.770166721349 0.8025148998058 0.20500533936419 1.1644150698181 -0.49467790021405 1.6965512022163 1.9035281761042 1.4164504147555 0.99757311477423 1.5054226452091 1.7087630206579 0.37814722868568 1.5824454523903 1.4854360693729 0.2117994072502 1.4327917027341 1.3439066027084 1.6380628509989 0.94781123596299 0.51682272491049 1.4290552388802 0.60166512343593 1.2615761462013 1.863988483205 1.3580398972224 1.49895912704 1.2910520106976 1.602880760928 0.34067530445122 0.37922154192942 0.96958142192032 2.0039034044827 1.1115596138318 0.60836980938162 1.5364303706604 1.5716577378941 1.0484269356501 1.362840288241 1.233991112382 1.3220395318264 1.5631848900891 1.4832519132214 0.73625235000097 1.2944095331811 1.3364398183119 1.5991273904063 1.8757242251534 0.59116113352281 0.84342608901084 0.46592027560037 1.5118792144578 1.3214256460875 0.78290536491 0.98262303594581 1.7927318256642 0.48343258055223 1.1865211925099 1.053898772825 1.2849906838189 1.7326788357346 1.2392008783802 1.147777390315 1.7937110177112 1.8839820685526 1.5176081719981 1.733097552983 1.5916451851354 1.2259513289997 0.7834515775541 0.74027156930442 1.4906287821586 1.0589294257542 1.1786269534608 1.48298932889 0.73925858028351 1.6270032691308 -0.1558711149569 1.8094794784042 1.6017278020955 1.3593974934221 0.51614853190037 0.56798743292737 1.7453816850396 -0.040592968092226 1.1431848458808 1.2452682419863 0.59403200520307 1.1428301773529 1.8250133176864 1.8207066944379 1.4823307811831 0.66780065712843 1.7059938669451 1.7518467078315 0.30620079857817 0.90018508039011 1.6314100010518 1.0049041196748 1.552001150661 1.54048496084 0.91888691527079 1.3759886005195 1.215924206735 0.71898234728037 0.63701609733027 0.60458714334669 1.7803889050463 1.8376862283348 2.482462721152 1.5522350882015 0.87295183597017 1.3259910354902 1.4861464802963 0.91805399934251 1.4923861355249 1.7088396801942 0.49772028737876 1.7432853496894 0.85425372108092 1.735338151471 1.5181692650299 0.74192483147508 1.0876339746785 1.5034578967396 1.4012004133857 1.2359998160101 0.8814911237309 1.6307495570173 1.8075539162054 0.8474584741276 1.68511066928 1.737297983519 0.43164859207831 1.9795095376371 1.4120974744375 1.1774336658576 1.0450301525708 1.1047422923439 1.5610220457089 1.4739867348828 1.7064704326613 0.87490126010921 1.7849478597273 1.2649567086694 1.4046209162924 1.3305168040575 1.0316997609539 0.64366117068678 1.8896606593516 1.81312513818 1.4348093348645 1.9107792522584 1.0499407607466 1.0284254581412 1.5031914196941 1.4911315143383 1.3468568006406 1.3528591297366 1.4951814120993 1.0463213223512 1.7887156360548 1.8554735755866 1.4067844654313 1.0327618096471 0.7906658453562 1.4210572959601 1.2622632655459 0.3048882001235 1.5631571874561 1.7168074135079 1.2818833292622 1.8662130165092 1.3514169254045 1.0532164060395 1.8704503531814 1.4912969638965 0.56968312496254 0.7192390655494 1.2888463012126 1.8477846271301 1.1771272476444 1.0112155031265 1.4506499816089 1.3097690415462 1.7203595746317 1.5540701781248 1.2127594089639 1.3026248464035 1.7192612613618 0.86880102687911 1.6021641477457 1.6139539308553 1.8785201290501 1.4630258955274 1.2735998964443 1.7625459378807 1.740847773277 1.812318053733 1.5197502890651 1.4575075564449 1.4684640053144 1.5975286912533 1.4591162598953 0.92271509074153 0.03078309684838 0.87536021326334 0.77311668122343 0.75214929780533 1.5837530590981 1.2298667256746 1.769253959688 1.234942642191 1.5195499735967 1.2579401248234 0.59190615134052 1.7702339527417 1.5432061727209 1.6402406726848 -0.400903829073 1.8466740401894 1.6052540255019 1.0252059963684 1.8163087578199 1.1841759629638 0.90449609112072 1.5589468471349 1.289682105733 0.58766635141145 1.4583824086974 1.1930055875874 1.0864533481125 1.7683249147046 0.93656938222646 1.5834891541641 1.3100854586299 1.3291040831515 0.97618507043266 1.7817034880781 0.19655990317086 0.67963885240807 -0.52217740041798 1.3728497301666 1.4148701014288 0.78405643383296 1.0174778693312 1.5848196912589 1.6600974777645 1.3895377300812 1.6149193008066 0.88054643173817 0.85361843105402 1.8165826627553 1.7490124217131 1.4891844349571 1.5681174749075 1.4485062376914 1.4104327991866 0.58724646480998 1.3741090092082 1.6622164045449 -0.16252450812629 1.2528469027682 1.8706512507498 1.4355114970143 1.3984099600961 1.2479642697443 0.86220166380287 0.43466726154613 1.5456448345416 0.72659666857182 1.3790580867146 1.3807646099644 1.5307742067417 1.5932728565637 1.7887418756842 1.8266624950171 0.29843996712767 1.4578620341652 1.0962984396319 0.42211309795922 1.8105190949232 -0.51269053270776 0.54642889392747 1.2598162431627 1.7363256447315 0.86204843340425 1.4851734829664 0.53984619676461 1.4291130160172 1.0168296095599 1.2798715294412 0.96076504010145 1.0219519218191 1.8761458653504 1.4317268422212 0.72833429635581 -0.11439393142752 1.0413448656314 1.3091825354921 1.5360159012572 1.513925963984 0.94655635071449 1.8365533602618 1.3215760649802 1.4987330026865 1.4524774053682 0.71570322527672 1.5485950020545 1.50335783839 1.9169