# vtk DataFile Version 3.0
d-3__ created by libgimli-v1.5.0-1-g5991b6ac
ASCII
DATASET UNSTRUCTURED_GRID
POINTS 1483 double
3.3802423101098	12.435481574566	-0.57001420684378
3	12	-0.2857142857143
3.4959596309848	11.998298039034	0
3.2490070092203	12.168560129388	0
6.0395510135596	13.367156253372	-1.2757999763971
6.5930002103947	12.023472734859	-1.2922192071349
5.4998599382803	12.552571297657	-0.59337769664261
5.29662096318	11.932351047571	-1.5392209346082
5.6153020589615	9.1440579133635	-1.0774777831171
5.7237069713611	8.5589744845549	-0.30827017969781
5	9	-0.2857142857143
5.3151026533923	8.4249591108801	-0.38240156963578
2.3178923476779	4.1926464382665	0
2.5373292327812	4.4716333182052	-0.48281884804687
2.3342974478463	4.0018571812202	-0.30572640106363
1.9994701911036	4.4258543307655	0
4.8968211033092	12.507755029533	0
5	12	-0.2857142857143
5.2932790228536	12.494788035524	0
0	0	-0.2857142857143
0.54768630893449	0.55020446432687	-0.60775225926193
-0.16846798780902	-0.24002860812406	-0.65332445545953
-0.28063481777066	0.41453578455018	-0.44890469943706
7.7	3.575	0
7.3102059000399	3.7470939102263	0
7.7	3.6732286664853	-0.53772532608145
7.3176226410905	3.2857280588852	0
-0.7	-0.10798167686939	-0.47517111104905
-0.7	-0.57707899562378	-1.1376990549501
-0.7	-0.61986630133594	-0.43486724047509
6.3962361866998	10.611290418241	-1.3182185489848
6.565939673393	9.5694509864085	-0.57379796778735
7.1295911592009	10.496363016677	-0.48219980545192
6.3839624611364	10.341052129245	-0.35036617584397
7.7	14.3	-2.5
6.7623683783591	12.987112326146	-2.233077027779
7.7	13.059020885286	-3.3539705522597
7.7	13.327367479896	-2.129915020979
1	6	0
1	6	-0.2857142857143
0.93236760237426	6.49128333619	0
1.3454573625665	6.353105459937	0
2	5	-0.2857142857143
2.1684298754346	4.7403793023811	0
3.0226729813355	8.4836106439452	0
2.5164096947204	8.910651700233	-0.41109082170818
3.4071201441719	8.4167381876838	-0.59109415332551
2.5374808587914	8.1383747261781	-0.35604109466584
6.2778911301719	14.3	-0.61136458754231
6.2225356773765	13.691717475418	0
6.5208076177088	13.495118289851	-0.49928801204061
6.7358646795693	14.3	-0.39005656748015
5.7965188279432	13.281940723964	0
5.5320359851605	12.925291312368	0
5.353113789845	13.264183036004	0
5.5919457801018	13.101154188917	-0.33537516396337
7	10	-0.2857142857143
7	10	0
6.5010306427949	10.010760669106	0
6.8196744207924	9.5136576917357	0
7.7	1.1375	0
7.7	1.6430719769933	-0.42557297445049
7.1939383721229	1.4724531054162	0
7.7	1.625	0
6.3572581294301	1.4772201134971	-0.96507376287322
6.5574763981385	0.84898833643366	-0.48332647821142
6.7774291048203	1.7003141153393	-0.4123635555875
6.1433933962903	1.4220674799247	-0.28622251631329
-0.7	9.1984657118068	-1.9278839451739
0.33291529395702	8.3305676904572	-1.2970017952003
-0.7	8.1442617177323	-1.0898260028896
-0.7	7.644268062563	-2.0766032868031
4.508194357046	8.6258793740749	-0.60770874662543
5.0095189690676	8.5009469809039	0
4.7609249278557	8.7686419230913	0
6.2306672701993	2.67753718	0
6.6360398560532	2.4670661479797	-0.44686919005428
6.4910302172834	2.4939022421641	0
6.1550873755842	2.4572757142813	-0.33684154297057
1	1	0
1	1	-0.2857142857143
1.4901571161019	0.99574153349402	0
1.1736530561382	0.72346383359363	0
2	4	-0.2857142857143
2	4	0
1.6440539242474	4.1532454240512	0
7.7	6.9501255673919	-0.74418826283982
7	7	-0.2857142857143
6.7521552376889	6.497772044976	-0.66059363300197
7.7	6.3887218416049	-0.46884913673037
5.9482896260331	7.5800048202495	0
6	8	-0.2857142857143
6.3095291646476	7.6896230263426	0
6.1432247512519	7.3579252770212	-0.41388970597853
3.501272057481	12.437082442362	0
3.3297831413816	12.805427976196	0
3.6823393063421	12.851671876304	0
1.3671388209093	10.633374397873	-0.4152980605108
0.95248763025238	9.835503527633	-1.7808732395437
2.3518021577517	10.495200039554	-0.50930668321109
1.5373497846005	10.021005779616	-0.41781002197689
6.2054585007625	14.3	-1.3884356875417
6.9442913034148	14.3	-0.89278753613404
1	8	-0.2857142857143
0.54167473049383	7.7707286368021	-0.37916050195481
0.44975345341211	8.3808810318019	-0.31136669048163
1.022076618805	8.4121844676845	-0.45670843222423
0.89173681858685	4.6122796653579	0
1	5	-0.2857142857143
1.2386083631299	4.6841794176855	0
1.3923592539172	4.7130963353432	-0.25978315417498
6.4242299347383	5.6840176993625	-0.35514079575845
6	5	-0.2857142857143
6.3424541740313	5.2754910113697	0
6.0447933133998	5.5049876953384	0
5	2	0
5	2	-0.2857142857143
5.5190673049038	1.9208326821789	0
5.2306444928855	1.6547875838902	0
5	13	-0.2857142857143
5.257359886178	13.540476325965	-0.63012071696907
0	6	0
0	6	-0.2857142857143
0.066757795936057	6.5008369551487	0
0.29243888553297	6.1743316976873	0
7	9	-0.2857142857143
6.5033796411008	8.9981073418213	0
6.5607922823332	8.4440251373986	-0.63122800754088
6.811726958696	8.7028726276344	0
7	5	0
7	5	-0.2857142857143
6.4986646723997	4.9192017057136	0
6.7141996182955	5.3303468264748	0
7.7	9.5988491781319	-7.4736716195817
3.1507199964473	10.394874003632	-10
4.8663216648816	7.3792654266676	-10
5.1015502438684	11.553440122249	-6.405163284031
7	7	0
6.9589015254993	7.4884372736447	0
6.761634669635	7.2408783569561	0
6.0574437090791	0.20878539066113	-1.8779478182653
4.9838025543493	-1.3	-2.1179854334408
6.0308685444023	-1.3	-3.5425074203685
6.440522236286	-1.3	-2.0103523001383
3	2	0
3	2	-0.2857142857143
3.0105846506	1.4855923993349	0
2.6480485575569	1.6700894103009	0
5.0527203000088	13.535479310798	-1.5373151531841
5.0246691847863	14.3	-1.036131499603
4.1300067609037	14.3	-1.2024507502556
4.4744197407865	13.547407617085	-0.63586628370479
2.5813517996865	9.6286485974984	-1.0236151505326
2.2955236368793	9.5881134365907	-0.29154811067367
3	10	-0.2857142857143
6.4248505083522	12.522044346884	-0.42559946143008
6.465073985677	12.51782996062	0
6.1644652963082	12.36965297069	0
6.3832046574853	12.135664356038	0
2.9908655166747	12.498069465114	0
1.984703560175	7.5906357794687	-0.50777967523709
1.0508409188237	7.354634772545	-0.95680796450018
1.4515039911109	6.5829264157992	-0.56173008002516
1.3866216751759	7.5118935788728	-0.35488362790971
2.45	14.3	0
2.2168273415577	13.627179222019	0
2.4554693735383	13.497784276817	-0.39727655195048
3.032551925238	13.762466584345	0
6	11	-0.2857142857143
6	11	0
6.4843452951013	10.966514281357	0
6.2440599782187	11.234710090977	0
5.5	-0.5576923076923	0
5.247952850371	-0.29481663567353	0
5.5452342683804	-0.096294524539033	-0.49623355575102
5.1016398375367	-0.61489919294387	-0.38960315167385
2.3232496140345	4.0110297188843	-1.3835068702753
1.6586320571652	5.8268322896535	-1.5213554090482
0.71002746520551	3.976198472286	-1.505315421377
1.3296414347056	4.9089994064226	-0.82629172929831
5.6	14.3	0
4.6510156691765	14.3	-0.56274723813486
-0.090060726359069	5.5363033123106	-0.44581840212762
0	5	-0.2857142857143
-0.38456492153953	5.1805342841446	0
-0.7	5.0205501441189	-0.32507149572551
3	13	-0.2857142857143
5.1848675157348	3.2965660830064	0
5.4046165570399	2.9501485228537	-0.43988698776777
5.486289771732	3.4981838484395	0
5.4682750147717	3.0660382780841	0
0	8	0
0	8	-0.2857142857143
0.5178658825659	8.020802151125	0
0.25864598874121	7.6639427314904	0
6.7098208972434	7.2950601162224	-1.3269022195366
7.7	7.949747446039	-0.91833665053736
7.1577047253729	7.4844276204668	-0.64272934527953
4.5892004575887	3.5369189576522	-0.55981654583505
4.4420188491858	3.4660037233365	0
4.711527897636	3.7375259681419	0
4.3494632088922	3.8023533541114	0
4	6	-0.2857142857143
4	6	0
3.9913416390327	5.4988534517732	0
4.5093195747582	5.724109532591	0
1.4	14.3	0
1.5	13.55769230769	0
0.89284349994875	13.714781914708	0
1.2292962491126	13.670420041977	-0.37788942865261
4	9	-0.2857142857143
4	9	0
4.5502440226935	9.051086551406	0
4.2963154051231	9.3907765114078	0
4.5321110402369	7.5028925212181	-0.60552533206341
3.5085861108931	7.3893844432383	-0.64873189634878
4.0050480592533	7.4977657988521	0
4	8	-0.2857142857143
5.8961095330637	-1.3	-1.0125722125019
4.8982045728458	-1.3	-0.82217786726149
5.2296982103621	-0.31621891710017	-1.0679345669244
4.9010483556055	1.478997710586	0
4.5631533182214	1.9074133665015	-0.41231302454656
5.0320642355688	1.4518180616801	-0.36509190625555
3.5357179442866	0.46434418042464	-0.60031716899974
3.9407498163335	-0.4411178910574	-1.1087857494349
3.2826824657074	-0.47747544834602	-0.50866572047373
2.802260468126	-0.22902113419037	-1.4542342115515
1	13	0
1	13	-0.2857142857143
1.1191337005982	13.329221525091	0
1.4884720276527	13.02962190928	0
-0.21681247778723	8.5792000107362	0
-0.35118339610893	9.0917088673227	0
-0.7	9.0968147603684	-0.35256881313688
-0.7	8.9375	0
0.51662331659314	-0.40156299802931	-0.67799391089861
0.13474046208011	-1.3	-0.85683826964205
-0.16941603187845	-0.57512411281067	-1.4019543009948
6	13	-0.2857142857143
6	13	0
5.8068477026831	12.499749736815	0
6.1890713266052	12.67695534294	0
2.5984255358496	5.4578875982232	-0.67264342113488
2.2172109403706	5.4325217687574	0
2.4824672258873	4.9705265694472	0
2.6598112065826	5.3330483814808	0
-0.7	0.5146532048839	-0.51418317722913
-0.7	1.0492756199945	-0.88024243711367
-0.37698118088761	0.89350663208132	-0.33360419980628
-0.25096134668857	0.95145340086689	-0.90448711690516
6	2	-0.2857142857143
5.4002158317804	1.7678073061348	-0.50898482673054
5.8183999242367	2.5164331321023	-1.0840550371572
-0.13917028340788	5.5182991349521	0
0.31578338747353	5.7567158690792	0
6	12	0
6	12	-0.2857142857143
5.513035862904	11.994753403328	0
1.5285536174902	4.2362319729344	-0.43851980589517
0.57100063419133	12.499134596467	-0.56842257570583
1.2565986295401	13.42724014175	-1.149557674079
1.4486633887383	12.69302170761	-0.31714242590465
6.65	-1.3	0
6.903739311401	-1.3	-1.0953527719967
6.3980205255852	-0.38130956989248	-0.5855507841991
7.2175457166608	-0.5710098692386	-0.51938212652516
3	7	-0.2857142857143
3.5055774955602	6.7395375676091	-1.4094768265058
2.383927159844	7.4535505157878	-1.0620490471275
1	4	-0.2857142857143
1	4	0
1.2222221827385	4.2954008280594	0
0.82345085295407	4.2815033897546	0
5.6	-1.3	0
5.790373644402	-0.65252487431205	-0.38521635467031
[...]
CELL_DATA 5483
SCALARS Coverage double 1
LOOKUP_TABLE default
1.5001749050546 0.73691080976498 1.3897420651573 1.5553830352196 1.4356021496527 0.86125674625753 1.1381609961833 0.64878279616561 1.1002060571143 0.19783837780317 1.8288743949099 1.6442337208617 1.4779473833955 0.70869256253948 1.2421432446893 1.7783444908958 0.97586139401399 1.1338152296659 0.58868520563187 1.6370844177349 1.4344901065914 1.6901683725776 1.8787264607004 1.0563002268761 1.5780900409564 1.3871190807235 1.2337078647967 0.56951578896181 1.2843746918304 1.6404661430926 1.548462756121 1.7678502499245 1.2007767069038 1.7745174785052 1.4675113630492 1.7640778328948 -0.39221157456374 1.787837065294 0.2382838131113 1.7607668960297 0.60838083091781 1.3620613202817 1.3786571063472 1.4578332079824 1.2617227048304 0.88020247358023 1.8174026577595 1.026992741648 0.92699926147743 0.55876500635489 0.67581055197179 1.265633152161 1.3751994392749 1.5133288661114 1.246779502085 0.94438319105819 1.4334744424757 1.8308831642277 0.84855349511892 1.8210784229974 1.5035657831113 0.60019979330312 1.4140799375546 1.5183829964596 0.69744248063468 1.5756712057155 1.1243432723207 0.61823944178046 1.6995486504844 1.5493801801169 0.81701346224568 1.0793180969577 1.7615316888271 1.6850370315131 1.524612851758 1.0252251151796 0.61647537644626 1.2451018206519 1.927946329756 0.62571846011741 1.1513631844808 0.79410307921396 1.4919262300487 1.2164368122532 1.4928699117047 0.97934625228006 0.59831064858452 1.8500072366171 1.7570392472417 1.544932356791 1.1582806342939 1.1931972676508 1.2620742724977 1.2073872017287 1.4530315736652 1.610502400754 1.5800860128277 0.96826234568865 1.6310642086292 1.6528172309263 1.289030377853 1.7969825766451 0.94424068243591 1.5916033718706 1.0694228303184 1.522242042642 0.30482925354513 1.1158116135933 1.7790341533541 1.8656147823379 1.5717177739401 1.284594673789 1.4630497496563 1.4013753026829 1.150916039283 0.73064060684864 0.92972402502383 1.0197660495904 1.5555425397398 1.190959753712 0.95850916114882 1.6043207372583 1.2385052540462 0.41864191376661 1.2240598208556 1.7737822162271 1.0473045390144 1.8036741454174 1.321019303541 1.5195192751166 1.4933937574758 -0.22884205853273 1.0588683977902 1.3959834937872 0.80529398463164 1.5787855071785 -0.42437429996807 1.3402807913387 1.3205093990505 1.8598293005563 0.54906175112509 0.15290572250884 1.7753715452507 1.6815749306847 1.4941501466344 1.4066220120636 0.84609047071204 0.64998907673427 0.89258450942656 0.57871736806579 0.36514657978934 1.8488084010318 0.8052368772246 1.1900729544437 1.3830830582701 1.6318570192527 1.4406353907382 1.0435026394358 1.7276373219362 0.77627191737948 1.4310245853207 0.71336318335764 0.90316961390718 1.5693268840785 1.8562669872712 1.628047398002 0.58465197039374 1.7914218004809 1.4175737536328 1.8029153078122 1.5776888462694 1.1589478962426 1.2502239122791 1.8222516886425 -0.096957155220046 1.8518439888896 1.8991737313844 1.7610325664041 1.6913165409037 0.1616126797229 1.5457006071444 0.38688148880007 1.1140242504613 -0.093285749115245 1.2254760031174 1.8445990549028 1.3941468337042 1.5572821263409 1.8157369562207 1.3270225444342 1.8421184771383 1.312357324924 0.72644063646159 1.5848597562014 1.2525244699999 1.0682396045235 1.6377192625171 1.5320536187255 1.3973004928708 1.8601282044656 0.51079809236067 1.8938264663669 1.4099007740383 1.4969852801597 1.9088480709171 1.6533107548153 1.7086083000893 1.4603503716388 1.0694329394477 -0.45000147507662 1.3742228767176 1.0682718888402 1.1728204416673 1.8804879294954 1.8474870327716 1.8586576825825 1.8485419106637 1.5979779656609 0.85179167193108 0.84503741529725 1.3613857813264 1.7235247735594 0.54396349696057 1.8642678997765 0.71801276160628 1.6844214704694 1.5255677598305 0.85327713940116 1.9190070479855 1.150580881294 0.90812859213484 0.87017911047287 -0.14884935753744 1.8565019540459 1.4304131301149 1.1587705517206 0.54659559573113 1.7441859416721 1.5631346151439 1.5329227533747 1.7579719017139 0.69292608594052 1.5783649518286 0.95653674932852 1.5682155918141 1.8414315684518 1.322085894254 1.5251012838447 0.51939897736838 1.6070263113005 0.68115800157897 1.6684052220878 0.44880976437986 0.20403245698299 0.01683047434447 0.44184491805062 0.87008342813168 1.8578523174755 1.3058168484856 1.8669237151544 1.0291607500522 1.0460575478307 1.4193663113621 1.3405374597577 1.7528865732677 1.8278566356421 1.4482121302645 1.8572202120188 1.533294315287 0.71972362471653 1.8527729062133 1.887820350395 1.5523586232835 1.4229592093702 1.83492765728 1.5456974806832 1.8510259761068 1.5774022460142 1.5690598174582 1.7254283763085 1.6342961222603 1.9271354370069 1.4303996443818 0.52357290871839 0.49669914213108 1.2622240411395 0.9567540881866 1.582973034533 1.7410449552561 1.2960851836374 1.5292536167591 1.8398834462014 1.7236881020231 0.56218100867257 1.4128168673034 1.6904653843102 0.71483455598406 0.252891938902 0.83735876428709 0.49549575907044 0.44057362707588 1.5575356998972 1.3896433274228 0.98305572407035 0.80827490070524 1.0955692246571 1.6083853956177 1.2997829345523 1.530238943093 1.1106730600689 0.72788246677983 1.5733948699753 1.2512332210099 1.24607767267 0.63735302042124 1.1549391342911 1.5178760006875 1.070622086116 1.4377979554971 1.1398610053797 1.810693392577 1.4942690269433 1.5240408562785 1.4107573611183 1.9049004732048 1.2579951985513 1.693080273419 1.5434077499385 0.45576453953056 -0.64012687948343 1.6199298513289 1.1980830890962 0.71658715265464 1.5204346061687 1.4496506883086 1.7995064446 1.8742330793283 0.94104492160474 -0.58493395058914 0.84401672398141 1.4121949959095 1.2072297683051 -0.25901703596742 1.0284674724796 1.0480271505247 1.4158246737101 0.85403564978955 1.5480099644711 1.3557880075819 1.2361795386865 1.5252852177881 1.7156062804247 1.7772249888954 0.6016926982609 1.8751890522643 0.99573653514656 0.09831491568243 1.309830880838 1.700749194775 0.47842758421713 1.3126172464099 1.3586674528446 0.70375473994589 1.3767820943607 1.7372750262084 1.4679286084266 0.8720161447936 1.7728014200058 1.6764790808424 1.1977710288859 1.3074667493279 0.96648689896568 1.4639185401154 0.25978292315436 0.56853725730771 1.138390330213 1.2893837548692 1.5182465395084 0.7578589895916 0.32123014994141 1.8285929284668 1.8834640321013 1.8993552612596 1.5868375204111 1.3420018704215 1.8516285105823 1.8037929336296 0.57125903449248 0.83014660176613 1.5133776944992 0.99052009080003 -0.23755490416974 1.5889508903657 1.3958684659578 1.3616147963601 1.5767931036492 1.5978805271852 1.4615486618779 1.3864695440697 1.5342579737426 1.0385057100427 0.82547479358013 0.81485364806271 1.7503918165882 1.9162102594662 1.2327145146083 1.3458766895545 1.7190459634652 1.8503924908992 1.2698287733586 1.43124132965 1.5071991096429 0.64609079028178 1.8175848463551 1.4071264877671 1.4410595795809 0.91521912569888 1.5537643107433 1.8405540862885 -0.40437697532746 1.5454071705719 1.5103489907795 0.52482333055738 1.3809121806437 1.3465415346165 1.0344221620005 0.19069141364954 0.11840761222357 1.5820391973537 0.29841657203808 1.676878186924 1.2585044853523 1.8131153751444 0.87546103967916 1.7419457132048 1.3998408967247 1.7314341686791 1.794834457875 1.4088429817571 1.1903435003232 1.4229841007548 1.5633566479976 1.2674269203648 1.7330689528224 1.8225551368952 1.5512099628929 1.1321881521995 1.2696845845641 1.20260535837 1.230122245527 0.89562397311694 0.68379588701006 1.4494282021545 1.5175953795411 1.6066077928119 1.4543846205821 1.8797968059585 1.3571781533594 1.6853345514099 1.4862264600326 1.8784845899679 1.2197115089668 0.99294190443709 1.5901045936339 1.9041494499384 1.4806781528102 0.86152489909976 1.3390215337995 -0.25113344149946 1.8368920787603 0.45583095155952 1.8024987038011 1.4720788995437 0.21896818933059 1.5541998951306 1.303293171663 1.0633561463003 1.4958426775072 1.7149127591167 1.8358701362771 1.4237387255552 1.4307954760434 1.7957700974602 1.6302210843373 1.3643234736195 0.69730906663835 1.5808532059572 1.5423918024283 1.5179835520007 0.6482135743968 0.42273556917657 1.4227716302238 1.224439443109 1.4937437650766 0.82705988172063 1.850306040591 1.4386472314847 0.80969727088207 1.9196674475262 1.416639120108 1.0433072218355 0.61686377536815 0.82044209393988 0.98924691488864 0.5110182298576 1.6921127099638 1.5890939066134 -0.023958918130541 1.3141717252741 1.1613796403686 1.4445246446607 1.3469138274237 1.5242098857534 1.5015439710568 1.7933084256608 1.026234207287 1.5781407168988 0.74139817591437 1.0683865895202 1.3794865014996 1.5773947575006 1.0899114877249 1.7743721708325 1.6046335345173 1.298232514266 1.587734328491 1.4250266774576 1.664623690768 1.5593614362725 1.5971420542214 1.5592991483672 0.39933229289795 1.303760620189 1.4272268918433 1.8078806731547 0.75922654635481 1.7839519273046 0.7455793634897 0.88562704249961 1.3270474103443 1.781118047341 0.86145538084944 -0.7123675882871 1.2500584811095 1.5279489010409 1.2661706496204 1.6894339147891 1.4602070376301 0.64801720891146 0.81770715534602 1.821858971501 0.9191993390234 1.5797009726543 0.82468146515008 0.58147911229858 1.341513898952 0.5532566893997 1.5478199005892 1.5861006781543 1.5256376725732 0.014111070869995 1.1058410537586 1.6877481778361 1.188125318223 1.5257214856146 1.4224574514972 1.3748922369696 1.4293867660288 1.0515651391931 1.5868542281882 1.5393562605555 1.0108114212455 1.0770706267121 0.22844604745891 1.8773135405912 0.91382867104046 0.31845667668674 1.7352049049833 1.3178566904475 1.6098862295827 1.69098511216 1.6741847892909 0.63431583009219 0.84312060768424 1.5895232933448 1.3803091659726 1.6549705053413 1.1272104880789 1.4765255802432 0.74382804443774 1.0449816948598 0.81973728643108 1.505363904277 1.2276018912974 0.67212894047869 1.853981359683 1.6385685011464 -0.5737798776587 0.11376453598344 0.8848836603772 1.6109006927955 1.5636026901042 1.5413283103173 1.8328225019542 1.0812735761311 1.4300009624477 0.59876925033269 1.6781807642287 0.35922161683032 1.6738716611522 1.1015880096457 1.5701354056153 0.88780502422733 1.5847608327009 1.4994558789846 1.3454660862865 1.4282135550441 0.34312483374288 1.8565810705399 1.1349716995805 1.4877707659224 0.43496986790666 1.4507662914652 1.5608954001067 0.9428398290876 1.3377202091206 0.86558353584617 1.6873450032802 1.0742067054112 1.4667034620239 1.3700417357008 1.2680095237495 1.8589941779622 0.6620611260887 0.39071261541174 -0.55665302808164 1.7752491835091 1.116379370971 1.0425465371684 0.74617595726775 1.8054153420666 -0.2189355821862 1.6152757109086 1.5609985761156 1.090720735015 1.0273246734243 1.7684572262756 1.8560419080216 1.4628034250533 1.5148096212944 1.7931972703431 1.6804427245896 1.8463167012188 0.71915291365477 1.3418352051809 1.8441182615597 2.0355408072702 0.67577508722243 1.4235785948896 1.3572882494281 1.457658061276 1.561624325727 1.5865774856889 0.60293611231481 1.7305294720401 0.67375914530437 1.1251402760523 1.471037362889 1.9127530374676 1.1115642808151 1.4053258485956 0.089182477203567 1.6713475798916 1.6487619387942 1.1218249698677 0.25949495622392 1.3890647188537 0.70257465236632 1.6580644668426 1.1545953321391 1.5073685151312 -0.3744577376987 1.41123407825 0.64796649367939 0.75843932530015 1.8536121727411 1.2652980647476 1.3006411127213 1.5323212917325 0.44147343754149 1.8685512343145 1.8519978919888 1.5122853626593 1.8251162826249 0.6459745177703 1.3562199409101 1.2649088177852 1.517189882898 1.0133187947531 1.7918628769025 0.49060413352994 1.2595644740747 1.3817768439295 1.1771893181933 0.79107984681518 1.7675711786393 1.5502023720194 1.3270228121628 1.3486857944128 0.69663246776528 1.3736555071604 -0.44041821740575 1.5782011444687 0.99841375317218 -0.31149340760456 0.24312350506554 1.5323595982605 1.6694664766076 1.0724961390141 1.372112579909 1.8462443299883 1.5241413318479 1.0730975739769 1.6089131288967 0.91854922757161 1.1666066025957 1.4374651718926 0.96264522653732 0.32617270350045 1.2582266735026 1.4414025907847 1.8562472055067 0.74705046740477 1.6439628704302 1.5290101046741 1.4387689723153 1.5600163230151 1.5816112211002 0.18669997244512 0.96788797644086 1.3135378311273 1.0224744301204 1.2207669130924 1.1197813095751 1.7654697173417 1.0476551906867 1.2381654678735 1.4519586601424 1.7726549894509 1.7380631769922 1.7386852980255 0.62719046751736 1.8654716115273 1.4594513216222 0.74389488285254 1.1800319227715 1.4835612221547 1.4364975814905 1.098210179949 0.82659577933455 1.4342122759084 1.5298304844514 1.9130490632492 1.4194721972522 1.2923829646201 0.77258053359464 1.3999689388933 1.5449979121161 1.5761804599052 1.8123987664514 1.3936333559158 1.4926913518123 1.0774497442749 1.5380797984428 1.5849579940665 0.81665407334896 1.8825119656491 1.3953337728726 0.54967879010879 1.5919682576903 0.87559124697536 1.5085493388403 1.2017881183379 1.7199156556144 1.1922988660139 1.1973259780727 1.5589116387017 1.1396389631547 1.6365193927179 1.8488998695732 1.3063236297144 1.6267067728775 1.4410498132204 0.46726431560203 0.97870463690174 1.7769190971985 1.7125000281478 0.091257992724829 1.5893926026008 -0.57629023940971 1.385160389815 1.7270611901732 1.2870739053934 0.60390229204287 1.7692797200041 -0.72711593238146 1.7173715331451 1.3178169481748 1.4337974496159 0.71929475619161 1.1638763303957 1.3788474714076 1.0257552232552 1.4467273501115 1.0638365822114 1.5715388289259 0.75887687191827 1.4094441063925 1.5017232983214 1.2061236400642 1.3187380071427 1.574223002207 1.5487634458536 1.4586320262456 1.0740299381962 0.60669756025851 0.74044060262363 0.60637733818053 1.5229192520839 1.5612424185307 1.5730248560358 1.0545286292988 1.6683847520273 1.4924936906593 1.082101427077 1.5773120379735 1.4439010938248 1.5822677174332 0.50173184577799 0.96572058657316 1.5921009134397 1.2629070947403 0.87926576248109 1.2876132494448 1.3438967456211 1.0450655548804 1.2689751794957 1.5264789857379 1.4972176740281 1.1939304582241 1.8610505055692 1.8174399929936 1.0743669532272 1.2897691511658 0.70886980599208 1.3332595998103 0.6546603925447 1.631323263866 -0.22297835428232 0.6537419211313 1.5334896084606 -0.29315314861969 1.6529348070941 0.68444977628495 1.2809541129516 1.3069847697281 1.4145575455281 0.80564804568053 1.3992754116105 0.44572720952331 1.2392683267631 1.5698451399331 1.2653740608963 1.5336355182751 1.4810894949543 0.93483668176163 0.78161156191704 0.38225287083663 0.76991921939695 0.50020482240863 1.8190187190982 0.43566245022472 0.91627466155814 1.5177047686839 1.2767568610797 1.5225790701981 1.6440981173416 1.4690119707265 1.5713559429445 1.2276436176251 1.3794299865335 1.5120904673803 1.5318132147777 1.6864769219069 0.54276377944957 1.5684002768171 1.5491036117721 1.159406012388 1.1312455304089 1.636599775776 1.8877306495735 1.5925075992034 1.7152041083932 0.64973033117336 1.23025510376 1.8049409983783 1.4779259737989 1.278931101691 1.6617992793354 1.0038045443725 1.3679995316519 0.39704897278617 1.7332312455394 1.2393514964297 0.67136719221118 1.4597241326847 1.5044072416999 1.4015792219147 -0.17802750337763 1.2765132979201 1.5741183473909 1.8616110485807 0.31883000774118 1.7699305357291 0.79889192818999 0.20035833553574 1.1584476283472 -0.49085709242424 1.6887594155607 1.8950428707076 1.4083397994799 0.994097324937 1.4972360958192 1.6970780155815 0.37817451363018 1.5792635978764 1.4805381025074 0.20401082060895 1.4234430000185 1.3415666657227 1.6322385494949 0.94414630631904 0.51265434407917 1.4171019017262 0.59651511655046 1.2599961119033 1.858823278374 1.351103913346 1.4891366531118 1.2891255770854 1.5963170639786 0.33677230794092 0.37539609360875 0.96614750378788 1.9978380139825 1.1057667056175 0.60440423526548 1.5265508160804 1.5658477427905 1.043125520648 1.3538114362936 1.2313169742025 1.3193660651519 1.5567032050234 1.4736909604183 0.73792098210107 1.285006604153 1.3310509542414 1.5959966220032 1.8687736534441 0.59082154366691 0.83929412085074 0.46186173663585 1.5068350266177 1.3128790403356 0.77452571035988 0.97629055860772 1.7871806893095 0.48029194738082 1.1794334284119 1.0506234910117 1.2760219573251 1.7308027281256 1.2349904210309 1.1396367247915 1.7840667520262 1.8813495850666 1.5157840754822 1.7285710071487 1.5865974320007 1.2189644892101 0.7761286839747 0.73711534942558 1.4815657806554 1.0552711197717 1.175824793045 1.4798272311598 0.73682586647565 1.623819340854 -0.1573066894642 1.7993102123881 1.5924076110998 1.3507622076573 0.51490888045166 0.56201799482706 1.746064167358 -0.044040325231414 1.1407838412181 1.241452164271 0.59025208102405 1.1434304700888 1.8214777883977 1.8178975502174 1.481346394008 0.66868902919706 1.6996358803031 1.7457725260967 0.30412138393433 0.89969302337984 1.6280454772975 1.0020126398252 1.5433329777703 1.5299573082421 0.91579800110575 1.3700371535314 1.2139944001957 0.71275992166299 0.63057616526915 0.60182830194334 1.7693785707581 1.8292467569488 2.4778445316793 1.5455237883027 0.87512915069544 1.323752184626 1.4773447369106 0.91201968517742 1.4871453690568 1.7053058178453 0.49789038379621 1.7414055144105 0.8462369751072 1.730666200839 1.5052338883578 0.73787773775396 1.0725140090835 1.4987246569924 1.3937485945266 1.2332137004816 0.88037690534172 1.6292389220237 1.8049901272909 0.84261563512765 1.6819342067759 1.7353992239833 0.42865440875469 1.9733795802239 1.4139774667021 1.1751842910771 1.0176786307574 1.1020790938991 1.5562992669318 1.4650337177768 1.7043277927633 0.87308371471745 1.782119324331 1.2593909981083 1.402171645732 1.3215435686007 1.0342373164578 0.64362322772508 1.8796959247879 1.8031034118296 1.4357874998234 1.9062056301884 1.0478090032711 1.0249817587238 1.4924847336009 1.4878289163113 1.3377249108842 1.3464458255004 1.4911208160288 1.0395303947839 1.7824979733293 1.8509721114364 1.3995206053551 1.021792525316 0.7849498312391 1.4222541761746 1.2534176484749 0.29869319659417 1.5570776621393 1.7086916321215 1.2728523306299 1.8569052383872 1.350775376437 1.0486052088806 1.8656700002088 1.4859909975273 0.5659074164907 0.71564834762243 1.2918588170349 1.8443664632815 1.1740208376512 0.99461500275618 1.4478176414116 1.3064640364238 1.7130510976962 1.5487404757127 1.2098354499407 1.298371977906 1.7163110160289 0.86683422723018 1.5920671203797 1.6058511857109 1.8716487002863 1.4562713380076 1.2658580728228 1.7578233347054 1.7346824105207 1.8038906987141 1.5108944947475 1.4545751500987 1.4607958583195 1.590344475038 1.4548138803358 0.91962259102609 0.031125302108191 0.87088831406835 0.7692360736242 0.74781756410888 1.5764303447148 1.2169734223753 1.7627899892672 1.2242764908039 1.5169112647503 1.2556117239785 0.58821127856706 1.7652249856166 1.5395443454546 1.6310799363337 -0.40003025326127 1.8440125651827 1.6003628151887 1.0247876084562 1.8150781528679 1.1794534099172 0.89828607157177 1.570847435074 1.2844975630849 0.58815722236041 1.4494686670941 1.1863401997893 1.0841088789962 1.7669407681744 0.93293625165597 1.5816393171655 1.3074472933153 1.327508711501 0.9725859196634 1.772570120033 0.19255932187667 0.67536599382529 -0.52689151387195 1.3695701567558 1.4073689298413 0.78055220243268 1.0069995344418 1.5762591783212 1.6550432780029 1.3884117263363 1.6079846182862 0.87690480575917 0.84854036755717 1.8119679252702 1.7416938283721 1.4857086503816 1.5634429554339 1.4430938076383 1.4066123561647 0.58351138063789 1.3710300450419 1.6698880221335 -0.16407258160268 1.2489234488572 1.8660113982733 1.4334959796385 1.3960501049253 1.2518897462757 0.86288605572332 0.42831400871528 1.5357768792056 0.71965585549546 1.3702688845955 1.3769912058379 1.520533309274 1.5830591445842 1.7876295728445 1.8180551126433 0.29956417559789 1.4530808174668 1.0946650060051 0.4165828345006 1.8057584831545 -0.51157519188025 0.54395684763732 1.2492213259012 1.7302056324668 0.85535892388936 1.4808773576179 0.53668761827146 1.4274645783436 1.0138121763554 1.269918714924 0.95787118584199 1.0269584565813 1.8719715082446 1.4262262860301 0.72070972623598 -0.11619233525571 1.0354287552209 1.3072417442641 1.5289066626354 1.5094666555414 0.94135247548427 1.8322221931967 1.3209867292525 1.4944739005507 1.4466670060145 0.70979052603769 1.5441066584734 1.50368204