# vtk DataFile Version 3.0
d-2__ created by libgimli-v1.5.0-1-g5991b6ac
ASCII
DATASET UNSTRUCTURED_GRID
POINTS 10201 double
0	-10	0
0.5	-10	0
0.5	-9.9	0
0	-9.9	0
1	-10	0
1	-9.9	0
1.5	-10	0
1.5	-9.9	0
2	-10	0
2	-9.9	0
2.5	-10	0
2.5	-9.9	0
3	-10	0
3	-9.9	0
3.5	-10	0
3.5	-9.9	0
4	-10	0
4	-9.9	0
4.5	-10	0
4.5	-9.9	0
5	-10	0
5	-9.9	0
5.5	-10	0
5.5	-9.9	0
6	-10	0
6	-9.9	0
6.5	-10	0
6.5	-9.9	0
7	-10	0
7	-9.9	0
7.5	-10	0
7.5	-9.9	0
8	-10	0
8	-9.9	0
8.5	-10	0
8.5	-9.9	0
9	-10	0
9	-9.9	0
9.5	-10	0
9.5	-9.9	0
10	-10	0
10	-9.9	0
10.5	-10	0
10.5	-9.9	0
11	-10	0
11	-9.9	0
11.5	-10	0
11.5	-9.9	0
12	-10	0
12	-9.9	0
12.5	-10	0
12.5	-9.9	0
13	-10	0
13	-9.9	0
13.5	-10	0
13.5	-9.9	0
14	-10	0
14	-9.9	0
14.5	-10	0
14.5	-9.9	0
15	-10	0
15	-9.9	0
15.5	-10	0
15.5	-9.9	0
16	-10	0
16	-9.9	0
16.5	-10	0
16.5	-9.9	0
17	-10	0
17	-9.9	0
17.5	-10	0
17.5	-9.9	0
18	-10	0
18	-9.9	0
18.5	-10	0
18.5	-9.9	0
19	-10	0
19	-9.9	0
19.5	-10	0
19.5	-9.9	0
20	-10	0
20	-9.9	0
20.5	-10	0
20.5	-9.9	0
21	-10	0
21	-9.9	0
21.5	-10	0
21.5	-9.9	0
22	-10	0
22	-9.9	0
22.5	-10	0
22.5	-9.9	0
23	-10	0
23	-9.9	0
23.5	-10	0
23.5	-9.9	0
24	-10	0
24	-9.9	0
24.5	-10	0
24.5	-9.9	0
25	-10	0
25	-9.9	0
25.5	-10	0
25.5	-9.9	0
26	-10	0
26	-9.9	0
26.5	-10	0
26.5	-9.9	0
27	-10	0
27	-9.9	0
27.5	-10	0
27.5	-9.9	0
28	-10	0
28	-9.9	0
28.5	-10	0
28.5	-9.9	0
29	-10	0
29	-9.9	0
29.5	-10	0
29.5	-9.9	0
30	-10	0
30	-9.9	0
30.5	-10	0
30.5	-9.9	0
31	-10	0
31	-9.9	0
31.5	-10	0
31.5	-9.9	0
32	-10	0
32	-9.9	0
32.5	-10	0
32.5	-9.9	0
33	-10	0
33	-9.9	0
33.5	-10	0
33.5	-9.9	0
34	-10	0
34	-9.9	0
34.5	-10	0
34.5	-9.9	0
35	-10	0
35	-9.9	0
35.5	-10	0
35.5	-9.9	0
36	-10	0
36	-9.9	0
36.5	-10	0
36.5	-9.9	0
37	-10	0
37	-9.9	0
37.5	-10	0
37.5	-9.9	0
38	-10	0
38	-9.9	0
38.5	-10	0
38.5	-9.9	0
39	-10	0
39	-9.9	0
39.5	-10	0
39.5	-9.9	0
40	-10	0
40	-9.9	0
40.5	-10	0
40.5	-9.9	0
41	-10	0
41	-9.9	0
41.5	-10	0
41.5	-9.9	0
42	-10	0
42	-9.9	0
42.5	-10	0
42.5	-9.9	0
43	-10	0
43	-9.9	0
43.5	-10	0
43.5	-9.9	0
44	-10	0
44	-9.9	0
44.5	-10	0
44.5	-9.9	0
45	-10	0
45	-9.9	0
45.5	-10	0
45.5	-9.9	0
46	-10	0
46	-9.9	0
46.5	-10	0
46.5	-9.9	0
47	-10	0
47	-9.9	0
47.5	-10	0
47.5	-9.9	0
48	-10	0
48	-9.9	0
48.5	-10	0
48.5	-9.9	0
49	-10	0
49	-9.9	0
49.5	-10	0
49.5	-9.9	0
50	-10	0
50	-9.9	0
0.5	-9.8	0
0	-9.8	0
1	-9.8	0
1.5	-9.8	0
2	-9.8	0
2.5	-9.8	0
3	-9.8	0
3.5	-9.8	0
4	-9.8	0
4.5	-9.8	0
5	-9.8	0
5.5	-9.8	0
6	-9.8	0
6.5	-9.8	0
7	-9.8	0
7.5	-9.8	0
8	-9.8	0
8.5	-9.8	0
9	-9.8	0
9.5	-9.8	0
10	-9.8	0
10.5	-9.8	0
11	-9.8	0
11.5	-9.8	0
12	-9.8	0
12.5	-9.8	0
13	-9.8	0
13.5	-9.8	0
14	-9.8	0
14.5	-9.8	0
15	-9.8	0
15.5	-9.8	0
16	-9.8	0
16.5	-9.8	0
17	-9.8	0
17.5	-9.8	0
18	-9.8	0
18.5	-9.8	0
19	-9.8	0
19.5	-9.8	0
20	-9.8	0
20.5	-9.8	0
21	-9.8	0
21.5	-9.8	0
22	-9.8	0
22.5	-9.8	0
23	-9.8	0
23.5	-9.8	0
24	-9.8	0
24.5	-9.8	0
25	-9.8	0
25.5	-9.8	0
26	-9.8	0
26.5	-9.8	0
27	-9.8	0
27.5	-9.8	0
28	-9.8	0
28.5	-9.8	0
29	-9.8	0
29.5	-9.8	0
30	-9.8	0
30.5	-9.8	0
31	-9.8	0
31.5	-9.8	0
32	-9.8	0
32.5	-9.8	0
33	-9.8	0
33.5	-9.8	0
34	-9.8	0
34.5	-9.8	0
35	-9.8	0
35.5	-9.8	0
36	-9.8	0
36.5	-9.8	0
37	-9.8	0
37.5	-9.8	0
38	-9.8	0
38.5	-9.8	0
39	-9.8	0
39.5	-9.8	0
40	-9.8	0
40.5	-9.8	0
41	-9.8	0
41.5	-9.8	0
42	-9.8	0
42.5	-9.8	0
43	-9.8	0
43.5	-9.8	0
44	-9.8	0
44.5	-9.8	0
45	-9.8	0
45.5	-9.8	0
46	-9.8	0
46.5	-9.8	0
47	-9.8	0
47.5	-9.8	0
48	-9.8	0
48.5	-9.8	0
49	-9.8	0
49.5	-9.8	0
50	-9.8	0
0.5	-9.7	0
0	-9.7	0
1	-9.7	0
1.5	-9.7	0
2	-9.7	0
2.5	-9.7	0
3	-9.7	0
3.5	-9.7	0
4	-9.7	0
4.5	-9.7	0
5	-9.7	0
5.5	-9.7	0
6	-9.7	0
6.5	-9.7	0
7	-9.7	0
7.5	-9.7	0
8	-9.7	0
8.5	-9.7	0
9	-9.7	0
9.5	-9.7	0
10	-9.7	0
10.5	-9.7	0
11	-9.7	0
11.5	-9.7	0
12	-9.7	0
12.5	-9.7	0
13	-9.7	0
13.5	-9.7	0
14	-9.7	0
14.5	-9.7	0
15	-9.7	0
15.5	-9.7	0
16	-9.7	0
16.5	-9.7	0
17	-9.7	0
17.5	-9.7	0
18	-9.7	0
18.5	-9.7	0
19	-9.7	0
19.5	-9.7	0
20	-9.7	0
20.5	-9.7	0
21	-9.7	0
21.5	-9.7	0
22	-9.7	0
22.5	-9.7	0
23	-9.7	0
23.5	-9.7	0
24	-9.7	0
24.5	-9.7	0
25	-9.7	0
25.5	-9.7	0
26	-9.7	0
26.5	-9.7	0
27	-9.7	0
27.5	-9.7	0
28	-9.7	0
28.5	-9.7	0
29	-9.7	0
29.5	-9.7	0
30	-9.7	0
30.5	-9.7	0
31	-9.7	0
31.5	-9.7	0
32	-9.7	0
32.5	-9.7	0
33	-9.7	0
33.5	-9.7	0
34	-9.7	0
34.5	-9.7	0
35	-9.7	0
35.5	-9.7	0
36	-9.7	0
36.5	-9.7	0
37	-9.7	0
37.5	-9.7	0
38	-9.7	0
38.5	-9.7	0
39	-9.7	0
39.5	-9.7	0
40	-9.7	0
40.5	-9.7	0
41	-9.7	0
41.5	-9.7	0
42	-9.7	0
42.5	-9.7	0
43	-9.7	0
43.5	-9.7	0
44	-9.7	0
44.5	-9.7	0
45	-9.7	0
45.5	-9.7	0
46	-9.7	0
46.5	-9.7	0
47	-9.7	0
47.5	-9.7	0
48	-9.7	0
48.5	-9.7	0
49	-9.7	0
49.5	-9.7	0
50	-9.7	0
0.5	-9.6	0
0	-9.6	0
1	-9.6	0
1.5	-9.6	0
2	-9.6	0
2.5	-9.6	0
3	-9.6	0
3.5	-9.6	0
4	-9.6	0
4.5	-9.6	0
5	-9.6	0
5.5	-9.6	0
6	-9.6	0
6.5	-9.6	0
7	-9.6	0
7.5	-9.6	0
8	-9.6	0
8.5	-9.6	0
9	-9.6	0
9.5	-9.6	0
10	-9.6	0
10.5	-9.6	0
11	-9.6	0
11.5	-9.6	0
12	-9.6	0
12.5	-9.6	0
13	-9.6	0
13.5	-9.6	0
14	-9.6	0
14.5	-9.6	0
15	-9.6	0
15.5	-9.6	0
16	-9.6	0
16.5	-9.6	0
17	-9.6	0
17.5	-9.6	0
18	-9.6	0
18.5	-9.6	0
19	-9.6	0
19.5	-9.6	0
20	-9.6	0
20.5	-9.6	0
21	-9.6	0
21.5	-9.6	0
22	-9.6	0
22.5	-9.6	0
23	-9.6	0
23.5	-9.6	0
24	-9.6	0
24.5	-9.6	0
25	-9.6	0
25.5	-9.6	0
26	-9.6	0
26.5	-9.6	0
27	-9.6	0
27.5	-9.6	0
28	-9.6	0
28.5	-9.6	0
29	-9.6	0
29.5	-9.6	0
30	-9.6	0
30.5	-9.6	0
31	-9.6	0
31.5	-9.6	0
32	-9.6	0
32.5	-9.6	0
33	-9.6	0
33.5	-9.6	0
34	-9.6	0
34.5	-9.6	0
35	-9.6	0
35.5	-9.6	0
36	-9.6	0
36.5	-9.6	0
37	-9.6	0
37.5	-9.6	0
38	-9.6	0
38.5	-9.6	0
39	-9.6	0
39.5	-9.6	0
40	-9.6	0
40.5	-9.6	0
41	-9.6	0
41.5	-9.6	0
42	-9.6	0
42.5	-9.6	0
43	-9.6	0
43.5	-9.6	0
44	-9.6	0
44.5	-9.6	0
45	-9.6	0
45.5	-9.6	0
46	-9.6	0
46.5	-9.6	0
47	-9.6	0
47.5	-9.6	0
48	-9.6	0
48.5	-9.6	0
49	-9.6	0
49.5	-9.6	0
50	-9.6	0
0.5	-9.5	0
0	-9.5	0
1	-9.5	0
1.5	-9.5	0
2	-9.5	0
2.5	-9.5	0
3	-9.5	0
3.5	-9.5	0
4	-9.5	0
4.5	-9.5	0
5	-9.5	0
5.5	-9.5	0
6	-9.5	0
6.5	-9.5	0
7	-9.5	0
7.5	-9.5	0
8	-9.5	0
8.5	-9.5	0
9	-9.5	0
9.5	-9.5	0
10	-9.5	0
10.5	-9.5	0
11	-9.5	0
11.5	-9.5	0
12	-9.5	0
12.5	-9.5	0
13	-9.5	0
13.5	-9.5	0
14	-9.5	0
14.5	-9.5	0
15	-9.5	0
15.5	-9.5	0
16	-9.5	0
16.5	-9.5	0
17	-9.5	0
17.5	-9.5	0
18	-9.5	0
18.5	-9.5	0
19	-9.5	0
19.5	-9.5	0
20	-9.5	0
20.5	-9.5	0
21	-9.5	0
21.5	-9.5	0
22	-9.5	0
22.5	-9.5	0
23	-9.5	0
23.5	-9.5	0
24	-9.5	0
24.5	-9.5	0
25	-9.5	0
25.5	-9.5	0
26	-9.5	0
26.5	-9.5	0
27	-9.5	0
27.5	-9.5	0
28	-9.5	0
28.5	-9.5	0
29	-9.5	0
29.5	-9.5	0
30	-9.5	0
30.5	-9.5	0
31	-9.5	0
31.5	-9.5	0
32	-9.5	0
32.5	-9.5	0
33	-9.5	0
33.5	-9.5	0
34	-9.5	0
34.5	-9.5	0
35	-9.5	0
35.5	-9.5	0
36	-9.5	0
36.5	-9.5	0
37	-9.5	0
37.5	-9.5	0
38	-9.5	0
38.5	-9.5	0
39	-9.5	0
39.5	-9.5	0
40	-9.5	0
40.5	-9.5	0
41	-9.5	0
41.5	-9.5	0
42	-9.5	0
42.5	-9.5	0
43	-9.5	0
43.5	-9.5	0
44	-9.5	0
44.5	-9.5	0
45	-9.5	0
45.5	-9.5	0
46	-9.5	0
46.5	-9.5	0
47	-9.5	0
47.5	-9.5	0
48	-9.5	0
48.5	-9.5	0
49	-9.5	0
49.5	-9.5	0
50	-9.5	0
0.5	-9.4	0
0	-9.4	0
1	-9.4	0
1.5	-9.4	0
2	-9.4	0
2.5	-9.4	0
3	-9.4	0
3.5	-9.4	0
4	-9.4	0
4.5	-9.4	0
5	-9.4	0
5.5	-9.4	0
6	-9.4	0
6.5	-9.4	0
7	-9.4	0
7.5	-9.4	0
8	-9.4	0
8.5	-9.4	0
9	-9.4	0
9.5	-9.4	0
10	-9.4	0
10.5	-9.4	0
11	-9.4	0
11.5	-9.4	0
12	-9.4	0
12.5	-9.4	0
13	-9.4	0
13.5	-9.4	0
14	-9.4	0
14.5	-9.4	0
15	-9.4	0
15.5	-9.4	0
16	-9.4	0
16.5	-9.4	0
17	-9.4	0
17.5	-9.4	0
18	-9.4	0
18.5	-9.4	0
19	-9.4	0
19.5	-9.4	0
20	-9.4	0
20.5	-9.4	0
21	-9.4	0
21.5	-9.4	0
22	-9.4	0
22.5	-9.4	0
23	-9.4	0
23.5	-9.4	0
24	-9.4	0
24.5	-9.4	0
25	-9.4	0
25.5	-9.4	0
26	-9.4	0
26.5	-9.4	0
27	-9.4	0
27.5	-9.4	0
28	-9.4	0
28.5	-9.4	0
29	-9.4	0
29.5	-9.4	0
30	-9.4	0
30.5	-9.4	0
31	-9.4	0
31.5	-9.4	0
32	-9.4	0
32.5	-9.4	0
33	-9.4	0
33.5	-9.4	0
34	-9.4	0
34.5	-9.4	0
35	-9.4	0
35.5	-9.4	0
36	-9.4	0
36.5	-9.4	0
37	-9.4	0
37.5	-9.4	0
38	-9.4	0
38.5	-9.4	0
39	-9.4	0
39.5	-9.4	0
40	-9.4	0
40.5	-9.4	0
41	-9.4	0
41.5	-9.4	0
42	-9.4	0
42.5	-9.4	0
43	-9.4	0
43.5	-9.4	0
44	-9.4	0
44.5	-9.4	0
45	-9.4	0
45.5	-9.4	0
46	-9.4	0
46.5	-9.4	0
47	-9.4	0
47.5	-9.4	0
48	-9.4	0
48.5	-9.4	0
49	-9.4	0
49.5	-9.4	0
50	-9.4	0
0.5	-9.3	0
0	-9.3	0
1	-9.3	0
1.5	-9.3	0
2	-9.3	0
2.5	-9.3	0
3	-9.3	0
3.5	-9.3	0
4	-9.3	0
4.5	-9.3	0
5	-9.3	0
5.5	-9.3	0
6	-9.3	0
6.5	-9.3	0
7	-9.3	0
7.5	-9.3	0
8	-9.3	0
8.5	-9.3	0
9	-9.3	0
9.5	-9.3	0
10	-9.3	0
10.5	-9.3	0
11	-9.3	0
11.5	-9.3	0
12	-9.3	0
12.5	-9.3	0
13	-9.3	0
13.5	-9.3	0
14	-9.3	0
14.5	-9.3	0
15	-9.3	0
15.5	-9.3	0
16	-9.3	0
16.5	-9.3	0
17	-9.3	0
17.5	-9.3	0
18	-9.3	0
18.5	-9.3	0
19	-9.3	0
19.5	-9.3	0
20	-9.3	0
20.5	-9.3	0
21	-9.3	0
21.5	-9.3	0
22	-9.3	0
22.5	-9.3	0
23	-9.3	0
23.5	-9.3	0
24	-9.3	0
24.5	-9.3	0
25	-9.3	0
25.5	-9.3	0
26	-9.3	0
26.5	-9.3	0
27	-9.3	0
27.5	-9.3	0
28	-9.3	0
28.5	-9.3	0
29	-9.3	0
29.5	-9.3	0
30	-9.3	0
30.5	-9.3	0
31	-9.3	0
31.5	-9.3	0
32	-9.3	0
32.5	-9.3	0
33	-9.3	0
33.5	-9.3	0
34	-9.3	0
34.5	-9.3	0
35	-9.3	0
35.5	-9.3	0
36	-9.3	0
36.5	-9.3	0
37	-9.3	0
37.5	-9.3	0
38	-9.3	0
38.5	-9.3	0
39	-9.3	0
39.5	-9.3	0
40	-9.3	0
40.5	-9.3	0
41	-9.3	0
41.5	-9.3	0
42	-9.3	0
42.5	-9.3	0
43	-9.3	0
43.5	-9.3	0
44	-9.3	0
44.5	-9.3	0
45	-9.3	0
45.5	-9.3	0
46	-9.3	0
46.5	-9.3	0
47	-9.3	0
47.5	-9.3	0
48	-9.3	0
48.5	-9.3	0
49	-9.3	0
49.5	-9.3	0
50	-9.3	0
0.5	-9.2	0
0	-9.2	0
1	-9.2	0
1.5	-9.2	0
2	-9.2	0
2.5	-9.2	0
3	-9.2	0
3.5	-9.2	0
4	-9.2	0
4.5	-9.2	0
5	-9.2	0
5.5	-9.2	0
6	-9.2	0
6.5	-9.2	0
7	-9.2	0
7.5	-9.2	0
8	-9.2	0
8.5	-9.2	0
9	-9.2	0
9.5	-9.2	0
10	-9.2	0
10.5	-9.2	0
11	-9.2	0
11.5	-9.2	0
12	-9.2	0
12.5	-9.2	0
13	-9.2	0
13.5	-9.2	0
14	-9.2	0
14.5	-9.2	0
15	-9.2	0
15.5	-9.2	0
16	-9.2	0
16.5	-9.2	0
17	-9.2	0
17.5	-9.2	0
18	-9.2	0
18.5	-9.2	0
19	-9.2	0
19.5	-9.2	0
20	-9.2	0
20.5	-9.2	0
21	-9.2	0
21.5	-9.2	0
22	-9.2	0
22.5	-9.2	0
23	-9.2	0
23.5	-9.2	0
24	-9.2	0
24.5	-9.2	0
25	-9.2	0
25.5	-9.2	0
26	-9.2	0
26.5	-9.2	0
27	-9.2	0
27.5	-9.2	0
28	-9.2	0
28.5	-9.2	0
29	-9.2	0
29.5	-9.2	0
30	-9.2	0
30.5	-9.2	0
31	-9.2	0
31.5	-9.2	0
32	-9.2	0
32.5	-9.2	0
33	-9.2	0
33.5	-9.2	0
34	-9.2	0
34.5	-9.2	0
35	-9.2	0
35.5	-9.2	0
36	-9.2	0
36.5	-9.2	0
37	-9.2	0
37.5	-9.2	0
38	-9.2	0
38.5	-9.2	0
39	-9.2	0
39.5	-9.2	0
40	-9.2	0
40.5	-9.2	0
41	-9.2	0
41.5	-9.2	0
42	-9.2	0
42.5	-9.2	0
43	-9.2	0
43.5	-9.2	0
44	-9.2	0
44.5	-9.2	0
45	-9.2	0
45.5	-9.2	0
46	-9.2	0
46.5	-9.2	0
47	-9.2	0
47.5	-9.2	0
48	-9.2	0
48.5	-9.2	0
49	-9.2	0
49.5	-9.2	0
50	-9.2	0
0.5	-9.1	0
0	-9.1	0
1	-9.1	0
1.5	-9.1	0
2	-9.1	0
2.5	-9.1	0
3	-9.1	0
3.5	-9.1	0
4	-9.1	0
4.5	-9.1	0
5	-9.1	0
5.5	-9.1	0
6	-9.1	0
6.5	-9.1	0
7	-9.1	0
7.5	-9.1	0
[...]
CELL_DATA 10000
SCALARS Coverage double 1
LOOKUP_TABLE default
-0.24276240214427 -0.21730832415613 -0.19331681064191 -0.17071157297928 -0.14944997495661 -0.12948723943804 -0.11085506676737 -0.093467139755475 -0.077317503801706 -0.062412483841666 -0.048670058779993 -0.036219395231053 -0.024818208498383 -0.014512693445407 -0.0050585815540148 0.0036990955104203 0.01149402112007 0.018741112245208 0.025230596767099 0.031298742743511 0.036704006844317 0.041873262447285 0.046474880281702 0.050819616910914 0.054964610641199 0.058552647376075 0.062153137334328 0.065226044595564 0.068168797946168 0.070826883480738 0.073423569848277 0.075807166514063 0.078211041949224 0.080573368651027 0.082550843238652 0.084547432557281 0.086640968420996 0.088495948553171 0.090335389497234 0.09216324889875 0.093652644790176 0.095075419354372 0.096231597248728 0.097261240298207 0.098040506470216 0.098766400277107 0.098936030422608 0.098936558792843 0.098536225381988 0.097901266196705 0.097043628480352 0.096182118523926 0.095197452743133 0.094400978985898 0.093591882649122 0.092894436996515 0.092041890913904 0.091150259929982 0.090073616438533 0.088879671848763 0.087566164517972 0.085954713120654 0.084331153184302 0.082392276041222 0.079992778331087 0.077231178263718 0.074132121093664 0.070433711371735 0.066391529537093 0.061768454194672 0.056712783398425 0.05099958498317 0.044809100150457 0.038252345361939 0.031133512707943 0.023634441866844 0.015637037673254 0.007328563937688 -0.0015660172583996 -0.010677170811062 -0.020383925882958 -0.030391755527199 -0.041016796793012 -0.05210091614506 -0.06383550768689 -0.075976153101549 -0.088634850792486 -0.10187359144199 -0.11554824973598 -0.13016388094195 -0.14571471729932 -0.161907249406 -0.17880031291782 -0.1964818352235 -0.21516459874105 -0.2349038731982 -0.2555755698243 -0.27711025096324 -0.29951755556538 -0.3229675209317 -0.23141273542758 -0.20568722715836 -0.18144967607528 -0.15861417321738 -0.13713703623538 -0.11698199732675 -0.098174480927644 -0.080645180130155 -0.064354961721025 -0.04931221520452 -0.035475715068147 -0.022919592051015 -0.011427950874322 -0.0010347151579629 0.0084961266965524 0.017275819876448 0.025171949183303 0.032424131455856 0.039014506119378 0.04506884765967 0.050569996219201 0.055716413852384 0.060394071313996 0.0647659436304 0.068895635776036 0.072567929336214 0.076126065637133 0.07925675103203 0.082181229038899 0.08486227022968 0.087422767593005 0.0898466629891 0.092255289840012 0.09456527531176 0.096591685250575 0.098571347430081 0.1006329991725 0.10253172919363 0.10436428647694 0.1061500429196 0.10768643414264 0.10908195554842 0.11023559574547 0.11121752333049 0.11203643477517 0.11272041616771 0.11293226157283 0.11289244859893 0.11252432340201 0.111887297565 0.11104170291997 0.1101652374008 0.1092453780394 0.1084178593096 0.10766743450547 0.10699866111768 0.10619441622159 0.10531894706129 0.10431433581947 0.10317071174082 0.10187514019435 0.10034230514654 0.098756642787638 0.09682958003284 0.094500466136927 0.091762853200079 0.088656926570616 0.085013539687444 0.080966443731929 0.076353308316418 0.071263096426591 0.065548843518242 0.059340605752303 0.05271240052803 0.045584666825479 0.038042325676326 0.030001277172773 0.021588011844162 0.012688085201734 0.0034643221505369 -0.0062731247497177 -0.016365894355539 -0.027062087063363 -0.038286527952675 -0.050068966710327 -0.062316479337519 -0.07511492814771 -0.088444673871709 -0.10225503811206 -0.1170203457326 -0.13269123405236 -0.14906341668219 -0.16612432256656 -0.18397757863454 -0.20286533922783 -0.22281390936785 -0.24371520674253 -0.26548441167714 -0.28813743647031 -0.31185244192075 -0.21996171693908 -0.19396215425755 -0.16947434998656 -0.14640456128264 -0.12470777623733 -0.10436001496331 -0.085375784965884 -0.067697585458927 -0.051266156618842 -0.036089932793731 -0.022149559302576 -0.0094900511761269 0.0020869424454298 0.01256660553628 0.022169655680698 0.030992562317492 0.038965110997403 0.046245554688053 0.052906980624984 0.058974318238601 0.064542984403535 0.069693740787156 0.074423272491435 0.078823799714268 0.082960899674082 0.086684597353334 0.090232222774685 0.093399052130224 0.096307552861923 0.099002158728487 0.1015543730868 0.10399284156219 0.10640378469549 0.10869055190268 0.11073408318227 0.11269752036471 0.11474515711195 0.11666824406704 0.11849667201751 0.12026007981856 0.12181931906521 0.12319054489092 0.1243398587922 0.12529383314456 0.12612733338333 0.1267902101522 0.1270218659398 0.12695552524941 0.12661272484588 0.12597509760703 0.1251409159035 0.12426156126519 0.1233857803107 0.12254534416021 0.12184180028041 0.12120141395429 0.12044435269387 0.11960761341743 0.11865808960727 0.11756518071106 0.11630643053951 0.11483258553426 0.11328733703049 0.1113972780093 0.10911600137057 0.1064070439816 0.10331197168619 0.099707766610934 0.095657575362603 0.091060852131622 0.085942110855422 0.080214244482667 0.07398207874515 0.067312150029586 0.060159198387889 0.052576411926556 0.044485751979762 0.035991218906319 0.027059464407395 0.017753260763907 0.0079632176813816 -0.0022084807716726 -0.012974656317162 -0.024316948848172 -0.036171810746009 -0.048524737245948 -0.061441337190666 -0.074881498107639 -0.088824153085496 -0.10372919856144 -0.11953434529729 -0.1360825188111 -0.15330897789557 -0.17133950931527 -0.19042725211216 -0.21059113207435 -0.23172692697494 -0.25373398460613 -0.27663419827674 -0.30061860849286 -0.20841276948184 -0.18213414597022 -0.15739145878404 -0.13408129879435 -0.11216128306473 -0.091620930916657 -0.072458631435208 -0.054625493111541 -0.038051210439194 -0.022743317988061 -0.0086947053226084 0.0040697530125991 0.015730701558469 0.026295065373482 0.035967208278557 0.044843426037949 0.052876311646788 0.060202818703441 0.066914751454095 0.073014208712754 0.078631191725992 0.083802850152559 0.088567059673569 0.093003727851844 0.097151256411329 0.10091549585929 0.10446623087889 0.10765526190302 0.11055562289118 0.11325951010472 0.11580932848362 0.11825384693303 0.12066780704451 0.12293786949919 0.124985432394 0.12693713336341 0.1289867567764 0.13091563513675 0.13274218338917 0.13448404985229 0.13605419400701 0.13740884787205 0.13855745626773 0.13948504277852 0.14032157040712 0.1409724771013 0.14120967770863 0.14113496044769 0.14080989060775 0.14016682292175 0.13934686966967 0.13847072737869 0.13762092342296 0.1367892405279 0.13612410454544 0.13550975617856 0.13480387623095 0.13400734805272 0.13310941202964 0.13207514495701 0.13086096448913 0.12944595445752 0.1279414727185 0.12609107706533 0.12384841424883 0.1211734994251 0.11810616314724 0.11452940778599 0.11047944410924 0.1058915874093 0.10075331386329 0.095004705502723 0.088753666025491 0.082053345816424 0.074867804600967 0.067243961464342 0.059105359498741 0.050537481066838 0.041565757193128 0.032185277250511 0.022333146543366 0.01209040448931 0.0012474661251085 -0.010197515097729 -0.022141721730808 -0.034594985822132 -0.047622322571685 -0.061178534848312 -0.075250694766537 -0.090290041290449 -0.10624055218374 -0.12296340197483 -0.14035534623799 -0.15856868112027 -0.17785539555114 -0.19823639586127 -0.2196111547088 -0.2418571532381 -0.26500725023533 -0.28925721905406 -0.19676371487675 -0.17020411766965 -0.14520205312028 -0.12164694500271 -0.099500908216858 -0.078764885338613 -0.059423311923712 -0.041429949335665 -0.024710078567637 -0.0092705077761612 0.0048871593819196 0.017757745606585 0.029504178047769 0.040150786302534 0.049889820631988 0.058821758643765 0.0669104665398 0.074292898145674 0.08104263407508 0.087180679596165 0.092836975386947 0.098039281828888 0.10283230275818 0.10730465015292 0.11146429962268 0.11526676356912 0.11882454666224 0.12202836048829 0.12492235869799 0.12763989321421 0.13018616365201 0.13263180109095 0.13504249154517 0.13730461200781 0.13934752490837 0.14129799812601 0.14334265457482 0.14527600147261 0.14709777659568 0.1488259382455 0.15039358439784 0.15174550651722 0.15287817755951 0.15378975867034 0.15462116946186 0.15526554813141 0.15549927213457 0.1554283394211 0.15510492085942 0.15447073905557 0.15365976932574 0.15278886610056 0.15195639548067 0.15114327888902 0.15050320826175 0.14993126296728 0.14927036488274 0.1485190842334 0.14767042570835 0.14670477489756 0.14553969003698 0.14417888172774 0.14271884463737 0.14091273696312 0.13870529997506 0.13607304855007 0.13303418850274 0.12948302478814 0.12543781274908 0.12085427098062 0.11569478673842 0.10993630277335 0.10366146108042 0.096929294469303 0.089708971240874 0.082046835476929 0.073858707241586 0.065228029937102 0.056207557200057 0.046759395429439 0.036842472343523 0.026530380189143 0.015605475334112 0.0040676577170662 -0.0079719728475037 -0.020527289830913 -0.033663012981539 -0.047332040808829 -0.0615312312211 -0.076706013476539 -0.092810077231503 -0.10970531690485 -0.12726274974136 -0.14566074034843 -0.16515105328738 -0.18575466769641 -0.20736786381358 -0.22985623405617 -0.25326011462505 -0.27777745967559 -0.18502860493583 -0.15817368529228 -0.13290709751711 -0.10910184369221 -0.086727483279425 -0.06579125926453 -0.046268151050513 -0.028110845473083 -0.011243757766233 0.0043298533689804 0.01859568124173 0.031571414355748 0.043403970048737 0.054131657304857 0.063938966120353 0.072928451791802 0.081071188254977 0.088511003047603 0.095295243360298 0.10147488550336 0.10716394998114 0.11240050913071 0.11722080519481 0.12172756195599 0.12590156351385 0.12973987944961 0.13330238708352 0.13651833922499 0.1394060062729 0.14213942565348 0.14468359480464 0.14712626225189 0.14953088864358 0.15178832831439 0.15382240208742 0.15577932145562 0.15781294375912 0.15974525519797 0.16156076701951 0.16327794464191 0.16484068996012 0.16619430808141 0.16730624315052 0.16820094209976 0.16902135901083 0.16965981403836 0.16989503107247 0.16983055974151 0.16950229064994 0.16887438387118 0.16807253169904 0.16721011226578 0.16639649866575 0.16560877272756 0.16498603493171 0.16445506966338 0.16384250855755 0.16313835676334 0.1623414872208 0.16144959539701 0.16033661051075 0.15903349917548 0.15761704957407 0.15586075397124 0.15368639469859 0.15110374329324 0.14809350856789 0.14456971919435 0.14052670074358 0.13595156922769 0.13076838154499 0.12500528012492 0.11869864203751 0.11193952988872 0.10468850676549 0.096990690396296 0.088746016913087 0.080058631882411 0.070978199155608 0.061469921704033 0.051487763756909 0.041106853730225 0.030105347054092 0.018471783713478 0.0063344922307982 -0.0063186489449133 -0.019557942856489 -0.033343534873762 -0.047667393058039 -0.062980058558732 -0.079240949821705 -0.096303508759113 -0.11403463349332 -0.13262092493917 -0.15231362023155 -0.17314765903773 -0.1949985861884 -0.21773206238728 -0.24139234042325 -0.26617220781198 -0.17319233296138 -0.14604377013001 -0.12050752658544 -0.096448084878009 -0.073842398594364 -0.052698075464721 -0.032993364180974 -0.014671658635344 0.0023471988940698 0.018054305667548 0.032431588981761 0.045509433439205 0.05742818618373 0.068237589832865 0.078115100416763 0.087164365009529 0.095358694582496 0.10285535250598 0.10967153942935 0.11589372091112 0.12161355542588 0.12688487707356 0.13173121462905 0.1362735787616 0.14046213453018 0.14433077992815 0.14790388268446 0.15112720260713 0.15401108265902 0.15675765651964 0.15930099810502 0.16173671225207 0.16413094255262 0.16638335484173 0.16841445549484 0.17037293594756 0.17239413536942 0.17432365833196 0.17613267091132 0.17784162639564 0.17939934905351 0.18074547434126 0.18184263418106 0.18271552825033 0.18352284727334 0.18415791509251 0.18439839703443 0.1843370560762 0.18400382978526 0.18337910589226 0.18258761541281 0.18173704118258 0.18093975712425 0.18018069217273 0.17957150882741 0.1790823880198 0.17852273980764 0.1778654488015 0.17712406630744 0.17630652735956 0.17524801626615 0.17400194293993 0.17263427125128 0.17092918208123 0.16879062436373 0.16625764107611 0.16327716268757 0.15978104012903 0.15574865419285 0.15117539999048 0.14597188536289 0.14020386804952 0.13386276375062 0.12708044151033 0.11981034948196 0.11206834512643 0.10376791854243 0.095024411698505 0.085881132471305 0.076316285245399 0.066275837718944 0.05582047942892 0.044745778443282 0.03301929584359 0.020782278383492 0.0080314217839706 -0.0053116660732637 -0.019213288264109 -0.033666448844374 -0.049116941478544 -0.065530378868292 -0.082762007784542 -0.10067426035342 -0.11944814328296 -0.13934289346174 -0.16041197980078 -0.18250727200914 -0.20548919027993 -0.22940524300007 -0.25444997891301 -0.16126825603493 -0.13381739185249 -0.10800422710065 -0.083688272552765 -0.06084689578919 -0.03949175959794 -0.019601564241451 -0.0011137047068335 0.016059282963959 0.031900060207981 0.04638980334088 0.059571075399516 0.071576556829776 0.082465504254536 0.092417937473733 0.10152459117428 0.10977070776739 0.11732245832644 0.12416916905058 0.13043501873748 0.1361879345541 0.14149252911938 0.14636214934854 0.15093681408989 0.15514166302656 0.15904166617034 0.16262358256604 0.16585126063021 0.16873456228246 0.17149763260942 0.17403847284026 0.17646444853522 0.17884477786384 0.18109250910292 0.18312743805574 0.18508131137186 0.18708797536975 0.18901825975217 0.19081758902121 0.19251393067491 0.19406977945834 0.19540371870693 0.19648281022653 0.1973425708567 0.19813612482695 0.19875626781106 0.19900866494919 0.1989465322157 0.19860876199067 0.19799057291112 0.19720893826999 0.19636916197142 0.19558788620528 0.19485805208659 0.19426273148301 0.19381705495188 0.19331737997784 0.19270297145895 0.19202162423146 0.19127794290151 0.19026979568348 0.18909118346654 0.18777700562333 0.18612302369019 0.18402505659404 0.18153302564992 0.17858129473437 0.17511411356362 0.1710996469367 0.1665299944013 0.16131062817741 0.15552700419796 0.14915804492582 0.1423504646422 0.13506047117691 0.12727699926339 0.11892937162018 0.11012125030396 0.1009136742115 0.091295255026219 0.081198594518175 0.070669470009544 0.059528468865301 0.047711161256996 0.035376808753968 0.022525307328045 0.0090737715110964 -0.0049448540925565 -0.019527929090421 -0.035112919921341 -0.051686738257798 -0.069087590969165 -0.087180404935215 -0.10614456582426 -0.12624356425522 -0.14754826957333 -0.16989595694598 -0.19313200421454 -0.21730232419584 -0.24261596665096 -0.14924882743847 -0.12149614942672 -0.095401035782563 -0.070824305623869 -0.047743441863682 -0.02617369407432 -0.0060968505358843 0.012561385112911 0.029890044112871 0.045865595554195 0.060468401127851 0.073753421564607 0.085848488563301 0.096814802266786 0.10684311343142 0.11600730435174 0.12430895706605 0.13190917557856 0.13878918966685 0.14509891195512 0.15088666399185 0.15621904399125 0.16111594379478 0.16572041798722 0.16994229007904 0.17387436825991 0.17746751208361 0.18069789886776 0.18358422316865 0.18635656463894 0.18889932685584 0.1913147965033 0.19368145815991 0.19592126426938 0.19795864744498 0.19990727769444 0.20190110924996 0.2038321129277 0.20561934714664 0.2073020082142 0.20885757444291 0.21017654088921 0.21123825795134 0.2120851393792 0.2128646690364 0.21346927752794 0.21373017307017 0.21366826301382 0.21332473452 0.21271698379968 0.21194203759026 0.21111542328274 0.2103459139642 0.20964786615009 0.2090672772299 0.20866968363249 0.20822534497248 0.20765988108849 0.20703737607855 0.20636853416706 0.2054151755027 0.20430660954787 0.20304640732149 0.20144369301154 0.19939145518081 0.19693689595304 0.19401967368333 0.19057990956366 0.18658560309536 0.18201478917199 0.17678940199312 0.17098383301173 0.1645921229972 0.15775208484731 0.15044618301547 0.14262019637392 0.13423282070421 0.12535711895327 0.11609604149368 0.10640878203156 0.096258043717843 0.085660443400965 0.074454398500185 0.06255300103455 0.050118792622189 0.037166552865012 0.023597218738183 0.0094654675732963 -0.005249225752301 -0.020969249552338 -0.03770972779867 -0.055279637026733 -0.073556481998426 -0.092711154073325 -0.1130188590213 -0.13455902601295 -0.15716598648133 -0.18066194248115 -0.20508779339929 -0.23066599402022 -0.1371425909226 -0.10908324535193 -0.08270080478115 -0.057859015047948 -0.034534456444928 -0.012747231688656 0.007517902566685 0.026349351158024 0.043835816756554 0.059948751579473 0.07466391078882 0.088052130299038 0.10024092054693 0.11128221299187 0.12138761771992 0.13060775559778 0.13897012903718 0.14661207491229 0.15353216875632 0.15988174410545 0.16570729997314 0.17106788447187 0.17599653514133 0.18062456415517 0.18486899802214 0.18882601801691 0.1924302334316 0.19566529695052 0.19855934935842 0.20134017280934 0.20388342508084 0.2062869630757 0.20863901518835 0.21087435276655 0.21291234208762 0.21485690340135 0.21684078631974 0.2187665254157 0.22053996234256 0.22221579162282 0.22376452402639 0.22507670601123 0.22611530078754 0.22694472035583 0.22770830600141 0.22830446299439 0.22857135315486 0.22850913320233 0.2281588096325 0.22755386054049 0.22678931471001 0.22597554783978 0.22521866588221 0.22455609823842 0.22399884701861 0.22363864883717 0.22324847027564 0.22274404909192 0.22218387021114 0.22159041078273 0.22070100063737 0.21964825300781 0.21844206990265 0.21690262370419 0.21489541825377 0.21248390091166 0.20960191622265 0.20618370402617 0.20220354155646 0.19764077621912 0.19241071228869 0.18658360528867 0.18016689587675 0.17329121974201 0.16596940801229 0.15810116183475 0.1496790829969 0.14073916196201 0.13142048063048 0.12167065446203 0.11145632425543 0.10079232042233 0.08952332771561 0.07753564358724 0.065001421083209 0.051953499559396 0.038263342203934 0.024017053895565 0.0091746972026176 -0.0066927041289775 -0.023600216577562 -0.041339394588713 -0.059805404220762 -0.079149280055734 -0.099675470537974 -0.12145371315216 -0.14431916629457 -0.16807777623166 -0.19276426996758 -0.2186106168725 -0.12495397649514 -0.096582344555354 -0.06990613360717 -0.04479580583746 -0.021223593795481 0.00078291702270288 0.021238557012635 0.040246089662157 0.05789130200198 0.07414371299005 0.088972521508695 0.10246275296635 0.11474567707626 0.12586209021559 0.13604390624618 0.14532149694772 0.15374503979912 0.16142675898644 0.16839095459492 0.17477430330266 0.18064530641028 0.18603396622094 0.19099473138472 0.19564179646738 0.19990863705655 0.20389521027494 0.20751596007181 0.21074988334608 0.21365544416262 0.2164446283616 0.2189852886752 0.22137285516636 0.22371792291387 0.22594749968739 0.22798700458427 0.22993227530174 0.2318940750922 0.23381679906518 0.23558211130374 0.23724424671302 0.23878736345431 0.24009363194268 0.2411028211618 0.24191697526501 0.24266192073218 0.24324964198764 0.24352791956286 0.243462327016 0.24310242433607 0.24249923900649 0.24174316047551 0.24094447364872 0.24020517901744 0.23957311435326 0.23903978042423 0.23872287034248 0.23839095481195 0.2379474354467 0.23745820873363 0.23693643995225 0.23611196719444 0.23512007827635 0.23397302593328 0.23248866406288 0.23053485660876 0.2281695254493 0.22531588396386 0.22192197573716 0.21796022407915 0.21339690314946 0.20816524080051 0.20232095504336 0.19587802023288 0.18896808899717 0.18163025117681 0.17371699628991 0.16525639364391 0.15626122068422 0.14687909602632 0.13706771754354 0.12678722479319 0.11606596798503 0.10472379972674 0.092651426658241 0.080025912145021 0.066872231739878 0.053065872933242 0.038709482918665 0.023728060269611 0.0077117983256292 -0.0093610380569255 -0.027275410979175 -0.045931331546407 -0.065469605305833 -0.086218139172329 -0.10823614159791 -0.13136471729955 -0.15538651810682 -0.18033806245477 -0.2064439206744 -0.11270297453613 -0.083997023084445 -0.057017615278116 -0.031636857816369 -0.0078154155985519 0.014414655398369 0.035064282659068 0.054247996321321 0.072053156490694 0.088446412277495 0.10338786950587 0.11698079164728 0.12935933399568 0.14055135458449 0.15080727654436 0.16014397130481 0.16862475888683 0.17634763574421 0.18336092022722 0.18977567075434 0.19569158248355 0.20110694107217 0.20609974342065 0.21076458914483 0.21505940742076 0.21907185164548 0.22270979737213 0.22594784063607 0.22886200670347 0.23165530699565 0.23419311366478 0.23656882749353 0.23890793343754 0.24114222035969 0.24317400869079 0.24511432224408 0.2470571