# vtk DataFile Version 3.0
d-3__ created by libgimli-v1.5.0-1-g5991b6ac
ASCII
DATASET UNSTRUCTURED_GRID
POINTS 1483 double
3.3802423101098	12.435481574566	-0.57001420684378
3	12	-0.2857142857143
3.4959596309848	11.998298039034	0
3.2490070092203	12.168560129388	0
6.0395510135596	13.367156253372	-1.2757999763971
6.5930002103947	12.023472734859	-1.2922192071349
5.4998599382803	12.552571297657	-0.59337769664261
5.29662096318	11.932351047571	-1.5392209346082
5.6153020589615	9.1440579133635	-1.0774777831171
5.7237069713611	8.5589744845549	-0.30827017969781
5	9	-0.2857142857143
5.3151026533923	8.4249591108801	-0.38240156963578
2.3178923476779	4.1926464382665	0
2.5373292327812	4.4716333182052	-0.48281884804687
2.3342974478463	4.0018571812202	-0.30572640106363
1.9994701911036	4.4258543307655	0
4.8968211033092	12.507755029533	0
5	12	-0.2857142857143
5.2932790228536	12.494788035524	0
0	0	-0.2857142857143
0.54768630893449	0.55020446432687	-0.60775225926193
-0.16846798780902	-0.24002860812406	-0.65332445545953
-0.28063481777066	0.41453578455018	-0.44890469943706
7.7	3.575	0
7.3102059000399	3.7470939102263	0
7.7	3.6732286664853	-0.53772532608145
7.3176226410905	3.2857280588852	0
-0.7	-0.10798167686939	-0.47517111104905
-0.7	-0.57707899562378	-1.1376990549501
-0.7	-0.61986630133594	-0.43486724047509
6.3962361866998	10.611290418241	-1.3182185489848
6.565939673393	9.5694509864085	-0.57379796778735
7.1295911592009	10.496363016677	-0.48219980545192
6.3839624611364	10.341052129245	-0.35036617584397
7.7	14.3	-2.5
6.7623683783591	12.987112326146	-2.233077027779
7.7	13.059020885286	-3.3539705522597
7.7	13.327367479896	-2.129915020979
1	6	0
1	6	-0.2857142857143
0.93236760237426	6.49128333619	0
1.3454573625665	6.353105459937	0
2	5	-0.2857142857143
2.1684298754346	4.7403793023811	0
3.0226729813355	8.4836106439452	0
2.5164096947204	8.910651700233	-0.41109082170818
3.4071201441719	8.4167381876838	-0.59109415332551
2.5374808587914	8.1383747261781	-0.35604109466584
6.2778911301719	14.3	-0.61136458754231
6.2225356773765	13.691717475418	0
6.5208076177088	13.495118289851	-0.49928801204061
6.7358646795693	14.3	-0.39005656748015
5.7965188279432	13.281940723964	0
5.5320359851605	12.925291312368	0
5.353113789845	13.264183036004	0
5.5919457801018	13.101154188917	-0.33537516396337
7	10	-0.2857142857143
7	10	0
6.5010306427949	10.010760669106	0
6.8196744207924	9.5136576917357	0
7.7	1.1375	0
7.7	1.6430719769933	-0.42557297445049
7.1939383721229	1.4724531054162	0
7.7	1.625	0
6.3572581294301	1.4772201134971	-0.96507376287322
6.5574763981385	0.84898833643366	-0.48332647821142
6.7774291048203	1.7003141153393	-0.4123635555875
6.1433933962903	1.4220674799247	-0.28622251631329
-0.7	9.1984657118068	-1.9278839451739
0.33291529395702	8.3305676904572	-1.2970017952003
-0.7	8.1442617177323	-1.0898260028896
-0.7	7.644268062563	-2.0766032868031
4.508194357046	8.6258793740749	-0.60770874662543
5.0095189690676	8.5009469809039	0
4.7609249278557	8.7686419230913	0
6.2306672701993	2.67753718	0
6.6360398560532	2.4670661479797	-0.44686919005428
6.4910302172834	2.4939022421641	0
6.1550873755842	2.4572757142813	-0.33684154297057
1	1	0
1	1	-0.2857142857143
1.4901571161019	0.99574153349402	0
1.1736530561382	0.72346383359363	0
2	4	-0.2857142857143
2	4	0
1.6440539242474	4.1532454240512	0
7.7	6.9501255673919	-0.74418826283982
7	7	-0.2857142857143
6.7521552376889	6.497772044976	-0.66059363300197
7.7	6.3887218416049	-0.46884913673037
5.9482896260331	7.5800048202495	0
6	8	-0.2857142857143
6.3095291646476	7.6896230263426	0
6.1432247512519	7.3579252770212	-0.41388970597853
3.501272057481	12.437082442362	0
3.3297831413816	12.805427976196	0
3.6823393063421	12.851671876304	0
1.3671388209093	10.633374397873	-0.4152980605108
0.95248763025238	9.835503527633	-1.7808732395437
2.3518021577517	10.495200039554	-0.50930668321109
1.5373497846005	10.021005779616	-0.41781002197689
6.2054585007625	14.3	-1.3884356875417
6.9442913034148	14.3	-0.89278753613404
1	8	-0.2857142857143
0.54167473049383	7.7707286368021	-0.37916050195481
0.44975345341211	8.3808810318019	-0.31136669048163
1.022076618805	8.4121844676845	-0.45670843222423
0.89173681858685	4.6122796653579	0
1	5	-0.2857142857143
1.2386083631299	4.6841794176855	0
1.3923592539172	4.7130963353432	-0.25978315417498
6.4242299347383	5.6840176993625	-0.35514079575845
6	5	-0.2857142857143
6.3424541740313	5.2754910113697	0
6.0447933133998	5.5049876953384	0
5	2	0
5	2	-0.2857142857143
5.5190673049038	1.9208326821789	0
5.2306444928855	1.6547875838902	0
5	13	-0.2857142857143
5.257359886178	13.540476325965	-0.63012071696907
0	6	0
0	6	-0.2857142857143
0.066757795936057	6.5008369551487	0
0.29243888553297	6.1743316976873	0
7	9	-0.2857142857143
6.5033796411008	8.9981073418213	0
6.5607922823332	8.4440251373986	-0.63122800754088
6.811726958696	8.7028726276344	0
7	5	0
7	5	-0.2857142857143
6.4986646723997	4.9192017057136	0
6.7141996182955	5.3303468264748	0
7.7	9.5988491781319	-7.4736716195817
3.1507199964473	10.394874003632	-10
4.8663216648816	7.3792654266676	-10
5.1015502438684	11.553440122249	-6.405163284031
7	7	0
6.9589015254993	7.4884372736447	0
6.761634669635	7.2408783569561	0
6.0574437090791	0.20878539066113	-1.8779478182653
4.9838025543493	-1.3	-2.1179854334408
6.0308685444023	-1.3	-3.5425074203685
6.440522236286	-1.3	-2.0103523001383
3	2	0
3	2	-0.2857142857143
3.0105846506	1.4855923993349	0
2.6480485575569	1.6700894103009	0
5.0527203000088	13.535479310798	-1.5373151531841
5.0246691847863	14.3	-1.036131499603
4.1300067609037	14.3	-1.2024507502556
4.4744197407865	13.547407617085	-0.63586628370479
2.5813517996865	9.6286485974984	-1.0236151505326
2.2955236368793	9.5881134365907	-0.29154811067367
3	10	-0.2857142857143
6.4248505083522	12.522044346884	-0.42559946143008
6.465073985677	12.51782996062	0
6.1644652963082	12.36965297069	0
6.3832046574853	12.135664356038	0
2.9908655166747	12.498069465114	0
1.984703560175	7.5906357794687	-0.50777967523709
1.0508409188237	7.354634772545	-0.95680796450018
1.4515039911109	6.5829264157992	-0.56173008002516
1.3866216751759	7.5118935788728	-0.35488362790971
2.45	14.3	0
2.2168273415577	13.627179222019	0
2.4554693735383	13.497784276817	-0.39727655195048
3.032551925238	13.762466584345	0
6	11	-0.2857142857143
6	11	0
6.4843452951013	10.966514281357	0
6.2440599782187	11.234710090977	0
5.5	-0.5576923076923	0
5.247952850371	-0.29481663567353	0
5.5452342683804	-0.096294524539033	-0.49623355575102
5.1016398375367	-0.61489919294387	-0.38960315167385
2.3232496140345	4.0110297188843	-1.3835068702753
1.6586320571652	5.8268322896535	-1.5213554090482
0.71002746520551	3.976198472286	-1.505315421377
1.3296414347056	4.9089994064226	-0.82629172929831
5.6	14.3	0
4.6510156691765	14.3	-0.56274723813486
-0.090060726359069	5.5363033123106	-0.44581840212762
0	5	-0.2857142857143
-0.38456492153953	5.1805342841446	0
-0.7	5.0205501441189	-0.32507149572551
3	13	-0.2857142857143
5.1848675157348	3.2965660830064	0
5.4046165570399	2.9501485228537	-0.43988698776777
5.486289771732	3.4981838484395	0
5.4682750147717	3.0660382780841	0
0	8	0
0	8	-0.2857142857143
0.5178658825659	8.020802151125	0
0.25864598874121	7.6639427314904	0
6.7098208972434	7.2950601162224	-1.3269022195366
7.7	7.949747446039	-0.91833665053736
7.1577047253729	7.4844276204668	-0.64272934527953
4.5892004575887	3.5369189576522	-0.55981654583505
4.4420188491858	3.4660037233365	0
4.711527897636	3.7375259681419	0
4.3494632088922	3.8023533541114	0
4	6	-0.2857142857143
4	6	0
3.9913416390327	5.4988534517732	0
4.5093195747582	5.724109532591	0
1.4	14.3	0
1.5	13.55769230769	0
0.89284349994875	13.714781914708	0
1.2292962491126	13.670420041977	-0.37788942865261
4	9	-0.2857142857143
4	9	0
4.5502440226935	9.051086551406	0
4.2963154051231	9.3907765114078	0
4.5321110402369	7.5028925212181	-0.60552533206341
3.5085861108931	7.3893844432383	-0.64873189634878
4.0050480592533	7.4977657988521	0
4	8	-0.2857142857143
5.8961095330637	-1.3	-1.0125722125019
4.8982045728458	-1.3	-0.82217786726149
5.2296982103621	-0.31621891710017	-1.0679345669244
4.9010483556055	1.478997710586	0
4.5631533182214	1.9074133665015	-0.41231302454656
5.0320642355688	1.4518180616801	-0.36509190625555
3.5357179442866	0.46434418042464	-0.60031716899974
3.9407498163335	-0.4411178910574	-1.1087857494349
3.2826824657074	-0.47747544834602	-0.50866572047373
2.802260468126	-0.22902113419037	-1.4542342115515
1	13	0
1	13	-0.2857142857143
1.1191337005982	13.329221525091	0
1.4884720276527	13.02962190928	0
-0.21681247778723	8.5792000107362	0
-0.35118339610893	9.0917088673227	0
-0.7	9.0968147603684	-0.35256881313688
-0.7	8.9375	0
0.51662331659314	-0.40156299802931	-0.67799391089861
0.13474046208011	-1.3	-0.85683826964205
-0.16941603187845	-0.57512411281067	-1.4019543009948
6	13	-0.2857142857143
6	13	0
5.8068477026831	12.499749736815	0
6.1890713266052	12.67695534294	0
2.5984255358496	5.4578875982232	-0.67264342113488
2.2172109403706	5.4325217687574	0
2.4824672258873	4.9705265694472	0
2.6598112065826	5.3330483814808	0
-0.7	0.5146532048839	-0.51418317722913
-0.7	1.0492756199945	-0.88024243711367
-0.37698118088761	0.89350663208132	-0.33360419980628
-0.25096134668857	0.95145340086689	-0.90448711690516
6	2	-0.2857142857143
5.4002158317804	1.7678073061348	-0.50898482673054
5.8183999242367	2.5164331321023	-1.0840550371572
-0.13917028340788	5.5182991349521	0
0.31578338747353	5.7567158690792	0
6	12	0
6	12	-0.2857142857143
5.513035862904	11.994753403328	0
1.5285536174902	4.2362319729344	-0.43851980589517
0.57100063419133	12.499134596467	-0.56842257570583
1.2565986295401	13.42724014175	-1.149557674079
1.4486633887383	12.69302170761	-0.31714242590465
6.65	-1.3	0
6.903739311401	-1.3	-1.0953527719967
6.3980205255852	-0.38130956989248	-0.5855507841991
7.2175457166608	-0.5710098692386	-0.51938212652516
3	7	-0.2857142857143
3.5055774955602	6.7395375676091	-1.4094768265058
2.383927159844	7.4535505157878	-1.0620490471275
1	4	-0.2857142857143
1	4	0
1.2222221827385	4.2954008280594	0
0.82345085295407	4.2815033897546	0
5.6	-1.3	0
5.790373644402	-0.65252487431205	-0.38521635467031
[...]
CELL_DATA 5483
SCALARS Coverage double 1
LOOKUP_TABLE default
1.4981783474079 0.73610784321766 1.3908866244056 1.5595853546158 1.4358952151722 0.86382692094824 1.1234579438506 0.65071949661259 1.098515178948 0.2001323638199 1.825795425754 1.6460746271357 1.482220091105 0.71234097980655 1.2413181592295 1.7792357717945 0.9623705853968 1.1295281326135 0.60877808224676 1.6378788863809 1.4308607175996 1.693332727757 1.876153442852 1.049811130424 1.5779210496838 1.3863429271966 1.2404681385146 0.57317450657546 1.2723872844247 1.6360084787179 1.5455502339645 1.7664586862234 1.200517972897 1.7802996673458 1.4694255158734 1.7620040959268 -0.39495800697434 1.7877371513926 0.23995781703827 1.7903052900159 0.6112609474327 1.3691580128188 1.3807980024872 1.4576757405054 1.2615043993393 0.88739005503443 1.816713244113 1.0287146862568 0.93127253066284 0.56017228071365 0.67903783924256 1.2631674949054 1.3740172789535 1.5088760780667 1.7124681416304 0.93991362345393 1.4278926691043 1.8321118986958 0.8532974131919 1.8253297697626 1.5053711773472 0.60476902557101 1.4164324933355 1.5198641093975 0.70787980992792 1.575919068757 1.1687556772467 0.62247379311566 1.6998508240285 1.5540319870155 0.81797161927402 1.0756018499455 1.760807368064 1.6828416091152 1.5256929006053 1.0309313916588 0.61417656449119 1.2538645416301 1.9243628358529 0.6272527629429 1.1531630387545 0.78843206468764 1.495238337953 1.2124089352527 1.4976795471624 0.97756050258368 0.59967386836174 1.8582741253569 1.7598793406549 1.550800223189 1.1542863989031 1.1980885069554 1.2569405109739 1.2122017244579 1.454181267722 1.6120400897629 1.5780207251863 0.96830613805213 1.6327836726787 1.6461833284034 1.2932399797574 1.7985061256711 0.93975635406628 1.5908678330418 1.0784399441227 1.5273225544196 0.3028859950432 1.1110294273665 1.7775893274713 1.8683749571768 1.5210717649038 1.288582791759 1.4645732850643 1.3951834480439 1.1537471503019 0.73738690237679 0.93803878015554 1.0122820253167 1.5546143211696 1.1947266750467 0.94549120957672 1.6049237598554 1.2369113760439 0.4161859035529 1.2271163062269 1.7741268980007 1.0492271655221 1.799714335313 1.3295832066033 1.5184513344113 1.4901844700153 -0.22844296534121 1.0556223962639 1.3923431098418 0.80649929624153 1.5805330835413 -0.4247143554924 1.3398230589043 1.3294546083495 1.8548139198233 0.54350030923691 0.14784007535825 1.7715652666054 1.6775245605307 1.4983883960404 1.4140568524442 0.88199929329253 0.65977038566997 0.90321267337081 0.58760047299387 0.36358808055528 1.8502861147478 0.80788917137651 1.2088233499911 1.3775688691216 1.6356828619553 1.4644408038909 1.0491616545032 1.7267629235293 0.77637789912536 1.4301852703544 0.7113613334057 0.98821426157467 1.5708010425652 1.8594248323278 1.6339762791973 0.58926297634066 1.7918002263713 1.4184173126882 1.799627263479 1.5804243139453 1.1706119865494 1.2487040954496 1.8224034085044 -0.098834107517969 1.8567004896656 1.9033065769874 1.7584879521146 1.688476990936 0.16440759282464 1.5460181286853 0.38903846371335 1.1128243325468 -0.10073683933768 1.2180299474008 1.84564490027 1.3989475406789 1.5592142398814 1.8200691309199 1.3266815400067 1.8446081008517 1.3173275781161 0.73204080513255 1.5866204045568 1.2606204382693 1.0641944003896 1.6382610035694 1.531757353388 1.3943452430858 1.8573493632813 0.51826430937797 1.8925291154632 1.4046278323434 1.488641785821 1.9062911824026 1.6512886631664 1.7126079078345 1.462176974916 1.0657964323469 -0.45856458339512 1.3764045701111 1.0706111574809 1.1719850559302 1.8801544424464 1.8466869157814 1.8571477574739 1.8466409014508 1.5960370463832 0.8536686395831 0.84772854943078 1.3701736472805 1.7189124659634 0.54499358549034 1.8639526843822 0.71206974178593 1.6821522993475 1.5276179546369 0.85166841634114 1.9207291165925 1.1497454550519 0.91463795251901 0.87477182840999 -0.15807082085195 1.8561404908084 1.4467346517428 1.1601533189333 0.55316305509923 1.7443566351173 1.5246669403327 1.5330601768555 1.7651728602519 0.69893426339314 1.5834685820475 0.9557089618217 1.569570657655 1.841928736991 1.3206141026172 1.5252431424001 0.50685272026684 1.6056290498149 0.68313357137901 1.6770416212034 0.45442041116705 0.20677337095649 0.006138349200673 0.44594520226795 0.87226335743933 1.8589802480735 1.3064475539907 1.8626482585402 1.0347341523644 1.045807693711 1.4007636719606 1.3441110794361 1.7450015017447 1.8271114656878 1.4490105999605 1.8546558021313 1.5254910551936 0.71800209476084 1.8554531349323 1.8818636271851 1.552365498782 1.4141713662197 1.8359212089159 1.5458440846847 1.8520371765569 1.5759416439833 1.5634024504801 1.7219487037359 1.633344446751 1.9250720093915 1.4250645467518 0.52596116815928 0.50158153839047 1.2645026547353 0.95371256457197 1.5834978679431 1.7414778858467 1.304831395608 1.528525349582 1.8447298259074 1.7204698279575 0.56078162358046 1.4038777587918 1.6896076977079 0.71897639559101 0.2597079417365 0.8335457192282 0.50112539850878 0.44653641527088 1.5580820458937 1.3990874726943 1.0268554968516 0.8098192955508 1.0970271466508 1.6071431985414 1.3004057243063 1.5292998915391 1.112256288168 0.73072320345407 1.5750303026244 1.2582729946328 1.2515306779903 0.63071219116434 1.1520171800243 1.518139300479 1.0747324064143 1.4368238661607 1.1524352003545 1.8140670424198 1.4886331250066 1.5251365698369 1.4068223661102 1.9035676878285 1.2567255271436 1.6954625989221 1.5371610822109 0.45954718019072 -0.63871762979125 1.6210228979938 1.1955152000111 0.72379074116704 1.5248471478208 1.4485640141339 1.7935300261274 1.870434945812 0.94389491511716 -0.59129196913199 0.83971269598012 1.410658906152 1.2166860861848 -0.25537684454389 1.0543163583988 1.0476474538104 1.4144914570092 0.89424103037901 1.5421711676396 1.3652750202351 1.2353558503582 1.5223723816824 1.7177208380653 1.7924425519231 0.59489360998357 1.8762809272701 0.99395880379642 0.10411292670576 1.2946901412079 1.7420387666231 0.47853345404628 1.2987798446424 1.3640694120832 0.70772182513537 1.3738062749623 1.741296083462 1.4672680935964 0.86741347245351 1.7686836812354 1.6727300515834 1.2018674047285 1.3142843300484 0.96594243378191 1.4650514370155 0.26519392718394 0.57360954987989 1.1407535299737 1.2896881259257 1.5193419214781 0.760230216675 0.32116161474825 1.8257655117473 1.8821891271275 1.8946486598617 1.5899179544721 1.3382726895998 1.854536485589 1.8056630525997 0.57473607728969 0.83165040636444 1.5220668035215 0.99028449089622 -0.23239932885985 1.5856732791512 1.4005771569366 1.3881351179998 1.5747749596075 1.5994871335087 1.4619079218119 1.3707826812954 1.5239554807872 1.0421536458653 0.83142048873135 0.82312063062165 1.7494958789266 1.9143477758534 1.2315250901579 1.3379724789033 1.7183017231002 1.8450015959566 1.2738492497799 1.4231398793871 1.5073566752643 0.64679138237208 1.8121963096009 1.4045541193758 1.4381413689621 0.91934132023523 1.5502022589246 1.8421160940677 -0.40281141115358 1.5462832695633 1.5165935036264 0.51848054556122 1.3853432246243 1.3508691029612 1.0366012476791 0.19355811569492 0.11184809057654 1.5783737975809 0.30323521694389 1.6889190886475 1.2578144866717 1.8172043925786 0.87182658634205 1.7400956007771 1.3984672145045 1.7321354768941 1.7983578581306 1.3992575609766 1.1943358402134 1.4226684987745 1.5635535803466 1.2662898194113 1.7299704573646 1.8257287523107 1.5581688048726 1.1329630194583 1.2704356702307 1.1958584093853 1.2337734762744 0.89946292681042 0.69068533801488 1.4485510929669 1.5182307824751 1.5575414569451 1.4536203431069 1.8817553450708 1.3924673488942 1.6856225373597 1.4907100707616 1.8795408502807 1.2252866114189 0.98126396641999 1.5893015153422 1.9101754128127 1.475249607511 0.86962893094497 1.3401397517257 -0.25509117999035 1.8379109530256 0.44417202648072 1.7925740773215 1.4726456888963 0.22432311058972 1.5534849075798 1.3045855589395 1.0627661530407 1.4924001074016 1.7188891838503 1.8388913149697 1.4256952097977 1.3637997874244 1.8025881055955 1.6301647342204 1.3650512225771 0.70223725754939 1.5787548434559 1.5437727887531 1.5207210322174 0.65089877457029 0.43208758083411 1.43963377583 1.2230150619022 1.4919981135089 0.82642129620877 1.8475835619508 1.4537713731148 0.81185381507056 1.9163892169348 1.4211439107787 1.0442603146786 0.62456823753421 0.82290227863072 0.97955257825221 0.51582403476758 1.6934873291983 1.5880881745341 -0.034251353078911 1.3138659929939 1.151732693399 1.4437393029482 1.34898223143 1.5266637437781 1.5036286137489 1.7900381344657 1.0292442619682 1.5792186763573 0.74053338331096 1.0682656633495 1.378811084954 1.5820243756388 1.0906658358734 1.7748809717373 1.6073084967285 1.3037503560602 1.582152511608 1.4259041193665 1.664532153006 1.560177606645 1.5981867022584 1.5604389936651 0.40125782218077 1.3044030814026 1.4215734822654 1.8093162768448 0.76451140886103 1.7846625504409 0.75398701207106 0.88070426479275 1.324835200312 1.7826886907879 0.85549370404861 -0.71215541506415 1.2551542872245 1.5245136221487 1.261560203498 1.6891286058293 1.4610934548718 0.65062414232603 0.80749439233094 1.8155456844525 0.92416669148204 1.5787550602158 0.83153194925789 0.59240467434958 1.3592318365961 0.56170835362976 1.5530403165381 1.5837490134046 1.5243236132382 0.011765818511867 1.1029942807525 1.6928631704298 1.1909662988674 1.5195492937441 1.4233320070049 1.3876630437848 1.4492049668897 1.056857656015 1.5886108364306 1.5385660658161 1.0161759177467 1.0813637836535 0.23536916817964 1.8808861647858 0.91194386136584 0.32420366187501 1.7340269741794 1.3230946974961 1.6118877966806 1.6922400680419 1.6729754003979 0.63616378517511 0.84597499015165 1.5879911199388 1.3831718636444 1.6583109504853 1.1369378575903 1.4744080507084 0.7532771812183 1.0500976206399 0.82621947718306 1.5061805120913 1.2329879588447 0.66385105454894 1.8550035777499 1.6408351789636 -0.5697199219085 0.1180047086598 0.88649513354082 1.6218696847669 1.5261441816378 1.5347940032722 1.8355104851917 1.0871928468035 1.427823165015 0.59130389302738 1.6749274243385 0.34534541774157 1.6277000216074 1.0928857083177 1.5732236118056 0.89487050261065 1.5866749976519 1.5000718938762 1.3476475799909 1.4272479428839 0.34099040194301 1.8631876658467 1.136629811178 1.4923991319552 0.43927618624612 1.4469836617707 1.5599140633822 0.94321510995161 1.3375115706908 0.86032659415392 1.6872435400006 1.0734201912707 1.4680500137131 1.3757664501432 1.255439509011 1.8590456397202 0.67172830092214 0.39487698547232 -0.56695862744368 1.7723600240299 1.1133977887737 1.04968254833 0.74965970002576 1.7989199409058 -0.22003800008169 1.6234172226209 1.5627609690449 1.0804942810885 1.0291445588916 1.772170914379 1.8575763740066 1.4697417180189 1.5161464599863 1.7839752309488 1.7009013570575 1.8417660801992 0.72885266844611 1.3428831513696 1.8445611484277 2.0362144841778 0.66806879390277 1.4356726621361 1.3553097449319 1.4595354757944 1.5525725755595 1.5912555229573 0.60616282973246 1.7321817274168 0.66940765350258 1.1221540074935 1.472364824422 1.9133500274058 1.1102072223313 1.4104569851017 0.094665046017444 1.6735962167622 1.6467912647815 1.1630188559837 0.26210751285072 1.395100792032 0.69833236381506 1.6578782078199 1.1579663444351 1.5205075011833 -0.38321570989173 1.3558693450417 0.66177102297995 0.7558978498955 1.8534124995251 1.2706230878626 1.2993501261527 1.5322250237072 0.44577293754205 1.8662746138601 1.8524716864875 1.513114787196 1.8233439353671 0.64429568069742 1.3611518418847 1.7042707150383 1.5176290323259 1.0269495869112 1.7858969933233 0.49374452662513 1.2592718442056 1.3788633241686 1.1742978418651 0.79088093154626 1.7713872314892 1.5465623899521 1.3385592866579 1.352048457834 0.69233052858174 1.3822448255356 -0.43607920916544 1.5703152714655 1.0014442729951 -0.30947555085709 0.24319764571488 1.532093248657 1.5031595372115 1.3337396336294 1.3704021222139 1.8513097230189 1.5242908347945 1.0585587784943 1.6104770432744 0.9130790493773 1.1621336039311 1.437602625023 0.96231825423667 0.33202949024782 1.254666244647 1.4480342627769 1.8540038804076 0.74116022222939 1.6460584708872 1.5249202859314 1.441999595871 1.5614301695982 1.5834262320088 0.1771879033275 1.0020614953974 1.3217546651554 1.0176760356993 1.2299620041293 1.1184813746217 1.7615524772493 1.0379642434686 1.2372064907249 1.4517339489687 1.7727066221052 1.7338894717755 1.7334923083977 0.62233006236897 1.863119284863 1.4632518680699 0.73895294947876 1.1847049779349 1.484274916861 1.4670516850282 1.0945420761406 0.82903415007678 1.44440639299 1.5289307858786 1.9133789503892 1.4211926853361 1.2951225527629 0.76732636613305 1.3988755960959 1.5497428226079 1.5696297562675 1.8106724576602 1.4046517684961 1.4873739544797 1.0784241605141 1.5361250949129 1.5859875556716 0.8179293215935 1.8863147309633 1.3852457248089 0.5532122668739 1.5923332510728 0.86752527174386 1.5102673744799 1.206866229746 1.7210674048264 1.2001293513879 1.2000905592226 1.5637971732675 1.1310290690722 1.6373304169322 1.8492225672167 1.3132218111682 1.6286483308989 1.4420596852675 0.46885228395809 0.98305625661267 1.7785934098662 1.7020438873727 0.095257201999853 1.5895766758356 -0.58049779368102 1.3816127761863 1.712465926345 1.2909982918904 0.60178741335076 1.7656903471802 -0.72798572693459 1.7178378003579 1.3177296961629 1.42812081803 0.72163637235354 1.164900898604 1.3798104313933 1.0319928441593 1.4520764558503 1.065509606036 1.5286025038476 0.76316013888171 1.4111184806194 1.5034021297206 1.206607185512 1.3221817628267 1.5755364620008 1.5518812301421 1.4539341908059 1.0777557418593 0.61376326111079 0.74683537967729 0.60636755478248 1.5246453180829 1.5633035268869 1.5754695106343 1.0639616116657 1.6738116467652 1.4832925023822 1.0896026003908 1.57992453782 1.4401962345999 1.5834057594666 0.49579692936365 0.95898175150048 1.5940053564816 1.2637667036009 0.91455532949296 1.2866216085909 1.342812346405 1.04961126271 1.2732494239212 1.5201300020936 1.4915854415037 1.1922278858359 1.8589072739105 1.8198162400696 1.0708130160586 1.2902888775841 0.71169089935038 1.3350758187639 0.66266024252426 1.634542122799 -0.22502398258678 0.65667722525657 1.5312817158866 -0.30251486985639 1.6495789305595 0.68077918048996 1.2815333650814 1.3029197079765 1.4158433971838 0.81266532271128 1.3980739071488 0.43656328630374 1.2401857485328 1.5678026966648 1.2659429466945 1.5293189697317 1.4518831967059 0.94219041616554 0.78883901496422 0.38935566376532 0.77550910164063 0.51106741044765 1.8192689558643 0.43746249907736 0.919260915033 1.5179027022235 1.2894315343852 1.5279204169844 1.4777319997245 1.4590296865564 1.5729994370589 1.2235576377993 1.3787503218241 1.5091525790078 1.5286180471675 1.6883191640683 0.54132687992147 1.5602269583094 1.5510148451371 1.1576578337981 1.1396248401256 1.6403998004561 1.8828752805048 1.598525042288 1.7139110199003 0.65320337216557 1.2317696816497 1.8089434569971 1.4957387833011 1.2839602791127 1.6595764083236 1.0034277812233 1.3682738530232 0.3892791557894 1.7429132026634 1.2382997490982 0.66633393068169 1.4573637538878 1.5059566300341 1.4112555843466 -0.17939023460692 1.2778787645323 1.5732921983787 1.8579864181099 0.31328208472152 1.7654006980547 0.79911419401538 0.20365029289035 1.1625241642071 -0.5016122937822 1.6903797802114 1.890257332964 1.4124242681854 0.99630984789682 1.4846913445238 1.7461356614185 0.36695808213003 1.5750361330552 1.4794702901246 0.20838586363184 1.4326279090016 1.3418241255359 1.6338573216809 0.94600647916067 0.51682961483301 1.4226229693616 0.60192118843742 1.2582494118198 1.8593239378565 1.3510372662375 1.4967191819519 1.2847843300702 1.5971993431752 0.33035120429236 0.37589658363707 0.96572665721505 1.99562622153 1.1103684268447 0.60804707679366 1.5334158000449 1.5680473127657 1.0452148838311 1.3595490667869 1.2322493329886 1.3167464117669 1.5544076003556 1.4769801302357 0.72922307422189 1.2935291211843 1.3316599093688 1.5936911504912 1.8690655688862 0.58787206463303 0.84473487238635 0.46724429372044 1.5036568495402 1.3176176384747 0.77799671107512 0.97899298576072 1.7893914730454 0.48392158806779 1.1845191835387 1.0509667866796 1.2808857858174 1.7294658451071 1.2337953921532 1.1480929548011 1.7874990580479 1.8706798113977 1.5134467442203 1.7279874129533 1.5838812814093 1.2224433557982 0.78427259239987 0.73885785243208 1.4836864010631 1.0580126487464 1.1760112071749 1.4811497254439 0.73408366514209 1.6218228374637 -0.16218145694489 1.8052198875999 1.5943737987515 1.3548359597933 0.50893701726508 0.57284301082803 1.7405815323588 -0.040774534452301 1.1383773338274 1.2476905607482 0.59183032712211 1.1382720992831 1.8202618478576 1.816953780205 1.4776011875492 0.65967279731837 1.6918901664416 1.7484910679317 0.29844684305973 0.8939359190358 1.6275043644293 1.0020669108278 1.5499113566024 1.5330019638888 0.91386921809712 1.3743263953084 1.2109910441993 0.72456438030865 0.63481514029152 0.60386511791937 1.7888917201896 1.8295565959461 2.4736880289894 1.5399667778456 0.86521703726493 1.3247092938169 1.4887044214548 0.92154879059883 1.4896668194092 1.7031570970061 0.48906263487469 1.7420096182518 0.85696745234106 1.7310007748672 1.4658709608125 0.74104823393598 1.1831879380765 1.4999101244105 1.3954277663497 1.2331643582445 0.87618297699519 1.6242918360345 1.804552185279 0.84567910578063 1.6810896548978 1.736454636633 0.42380036835899 1.9693263103332 1.4068882094476 1.1737640548019 1.0904570283241 1.0998506978737 1.5539884794805 1.4650200895408 1.7026561795922 0.87044246517247 1.808230621669 1.2660812218314 1.4238348498409 1.329187734422 1.0252676711459 0.63889302534204 1.88163726763 1.8095039992669 1.4308541078415 1.9073213230408 1.0462037445169 1.0249182265995 1.4966818408417 1.488590904726 1.3416634997886 1.3482501776886 1.4924922790903 1.0434008857401 1.7796035056011 1.8507707488237 1.403603554986 1.0463829709932 0.79037342368138 1.4146026736534 1.2614027843082 0.30565398557677 1.5579123755142 1.7106795881196 1.2775664914181 1.8622833030912 1.3463188954028 1.0504119983729 1.8613757172227 1.4856114663877 0.57133845906334 0.71822964503282 1.2806977800956 1.8415933800183 1.1710998260613 1.014379241811 1.4419619547639 1.3066773265633 1.7120417115376 1.5461829000459 1.2096707889004 1.3057346764777 1.7149561329675 0.86524447395795 1.5992744392465 1.6091674614052 1.8747179999322 1.4609683950708 1.2702733963892 1.7600601244719 1.7335761305085 1.8074116296333 1.515299451413 1.4530490775689 1.4526500508409 1.5945417497089 1.455332648569 0.91861105954555 0.020214908293318 0.87405499247773 0.77264755104931 0.74757801067702 1.5769076251048 1.225026089209 1.7615168951298 1.232007754668 1.5177528810155 1.2521421339058 0.5920871991972 1.7614309571902 1.5345516656417 1.6330870580017 -0.40919971334466 1.8342293589413 1.6021902382458 1.0192427995258 1.8106000892591 1.1812307607805 0.90582339293053 1.5411402965278 1.2863461221598 0.58086770985764 1.455654040276 1.1906460433767 1.0834595987975 1.7649489655713 0.93463190371163 1.5778485450916 1.3069405925256 1.3249102262856 0.97333709026785 1.7759993485334 0.19818143487226 0.67913921437045 -0.52701843178695 1.3690304689508 1.4093303808244 0.7822798970743 1.0372598290915 1.5793053417342 1.6561754740347 1.3835285344641 1.6099526939934 0.87811152665895 0.85149293980355 1.8097898776874 1.7481955660791 1.4863815367198 1.5580678878619 1.4405222101754 1.4083951038429 0.58497271433762 1.3717257494917 1.6545162863094 -0.1667961348729 1.2472055053935 1.8661479360708 1.4312966179142 1.39384889062 1.2394431653255 0.8571928110571 0.43360830217087 1.5440315900289 0.72938744468608 1.3765756044598 1.3769904348417 1.5263912088557 1.5850483493571 1.7841640532243 1.8197903439402 0.28943734751373 1.4550784733391 1.0907800808126 0.4234860256651 1.8054186099587 -0.52034170025937 0.53882549214597 1.2522082493144 1.7337433907208 0.86387275614314 1.4821824829461 0.53953362548868 1.4247957626335 1.0127491006799 1.3063210138081 0.95747876255366 1.0134558809436 1.8698038382943 1.4266013051601 0.72909937984056 -0.12342066790606 1.0390217749752 1.3058258769378 1.5322038773871 1.5106942335553 0.94359608516776 1.8330370306596 1.3184873599314 1.4916847375199 1.446419331282 0.71611058224562 1.5439292760354 1.498704945573