# vtk DataFile Version 3.0
d-2__ created by libgimli-v1.5.0-1-g5991b6ac
ASCII
DATASET UNSTRUCTURED_GRID
POINTS 283 double
34.044357375602	-0.48446139747041	0
33.849544373742	-0.54152517708999	0
34.041478273073	-0.83570528363401	0
34.625	-0.27380702240059	0
34.625	-0.13804348840203	0
34.518663902413	-0.18940103023305	0
34.458333333333	-0.087886572211462	0
34.416666666667	0	0
34.375	-0.13804348840203	0
34.291666666667	-0.087886572211462	0
34.333333333333	0	0
34.25	0	0
32.090538744189	-0.4442183366596	0
32.108034841327	-0.29684379366817	0
31.975011134358	-0.35577723490815	0
32.083333333333	0	0
32.041666666667	-0.13804348840204	0
32.125	-0.087886572211465	0
32.166666666667	0	0
32	0	0
32.708333333333	-0.13804348840204	0
32.625	-0.087886572211465	0
32.571273919549	-0.15094638411797	0
32.208333333333	-0.13804348840204	0
32.25	0	0
32.791666666667	-0.087886572211462	0
32.875	-0.13804348840203	0
32.833333333333	0	0
32.333333333333	0	0
32.291666666667	-0.087886572211462	0
33.083333333333	0	0
33.125	-0.087886572211465	0
33.166666666667	0	0
32.416666666667	0	0
32.375	-0.13804348840203	0
32.458333333333	-0.087886572211462	0
33.25	0	0
33.291666666667	-0.087886572211462	0
33.333333333333	0	0
33.625	-0.13804348840203	0
33.518663902413	-0.18940103023305	0
33.625	-0.27380702240059	0
32.666666666667	0	0
32.583333333333	0	0
34.916666666667	0	0
34.833333333333	0	0
34.875	-0.13804348840203	0
32.75	0	0
32.916666666667	0	0
36.148002764253	-0.189401030233	0
36.125	-0.073574282071766	0
36.041666666667	-0.13804348840204	0
35.458333333333	-0.087886572211471	0
35.375	-0.073574282071766	0
35.398002764253	-0.189401030233	0
32.541666666667	-0.073574282071767	0
32.5	0	0
33.791666666667	-0.087886572211462	0
33.833333333333	0	0
33.75	0	0
33.375	-0.13804348840203	0
32.791666666667	-0.18219221742148	0
36.166666666667	0	0
36.208333333333	-0.087886572211471	0
36.25	0	0
32.958333333333	-0.087886572211462	0
36.791666666667	-0.087886572211462	0
36.833333333333	0	0
36.75	0	0
33.041666666667	-0.13804348840204	0
33	0	0
36.083333333333	0	0
34.541666666667	-0.073574282071773	0
33.416666666667	0	0
33.5	0	0
33.458333333333	-0.087886572211462	0
34.583333333333	0	0
34.666666666667	0	0
34.208333333333	-0.073574282071773	0
34.165334880767	-0.15260258505376	0
36.875	-0.13804348840203	0
34.166666666667	0	0
34.125	-0.072182208352017	0
33.875	-0.13804348840203	0
33.916666666667	0	0
33.708333333333	-0.073574282071773	0
34.083333333333	0	0
34	0	0
34.041666666667	-0.13804348840204	0
32.125	-0.18219221742146	0
33.958333333333	-0.087886572211462	0
32.291666666667	-0.18219221742148	0
33.541666666667	-0.073574282071773	0
34.5	0	0
35.583333333333	0	0
35.541666666667	-0.13804348840204	0
35.625	-0.087886572211465	0
33.237940586216	-0.15094638411796	0
33.136111778917	-0.20065391017951	0
34.791666666667	-0.087886572211462	0
32.350733185273	-0.43425998658042	0
32.395540045204	-0.27753669533403	0
32.297361575098	-0.2802427279909	0
34.75	0	0
33.583333333333	0	0
33.666666666667	0	0
35	0	0
34.958333333333	-0.087886572211462	0
34.708333333333	-0.073574282071773	0
32.650397296319	-0.25702488420529	0
32.523708621495	-0.21877391554367	0
35.166666666667	0	0
35.083333333333	0	0
35.125	-0.13804348840203	0
35.041666666667	-0.073574282071773	0
35.574309558671	-0.44463412433528	0
35.61676710037	-0.28398118611486	0
35.514794374918	-0.28948918465347	0
35.208333333333	-0.087886572211462	0
33.208333333333	-0.073574282071767	0
35.25	0	0
34.226291378505	-0.21877391554367	0
34.432011579996	-0.40775209656413	0
35.5	0	0
35.416666666667	0	0
33.958333333333	-0.18219221742148	0
35.333333333333	0	0
34.086941669094	-0.28597976460228	0
35.666666666667	0	0
35.708333333333	-0.13804348840204	0
35.75	0	0
35.916666666667	0	0
35.833333333333	0	0
35.875	-0.13804348840203	0
35.791666666667	-0.087886572211462	0
33.731336097587	-0.18940103023305	0
34.780855971655	-0.36097200963117	0
34.731336097587	-0.18940103023305	0
35.958333333333	-0.087886572211462	0
36	0	0
35.018663902413	-0.18940103023305	0
36.291666666667	-0.13804348840204	0
36.333333333333	0	0
36.375	-0.087886572211465	0
37.124752694808	-0.11296503030676	0
37	0	0
36.958333333333	-0.087886572211462	0
36.416666666667	0	0
36.458333333333	-0.073574282071767	0
36.583333333333	0	0
36.541666666667	-0.13804348840204	0
36.625	-0.087886572211465	0
36.5	0	0
35.791666666667	-0.18219221742148	0
36.916666666667	0	0
36.43533056908	-0.18940103023302	0
35.625	-0.18219221742146	0
36.666666666667	0	0
35.300519698408	-0.25547676721968	0
35.403012973402	-0.30174008930841	0
35.291666666667	-0.13804348840204	0
36.208717134119	-0.38392172835883	0
36.385963434616	-0.36114994877352	0
36.552290248164	-0.29580321144287	0
36.999752694808	-0.25100851870877	0
36.708333333333	-0.073574282071767	0
36.737940586216	-0.15094638411796	0
35.116146968258	-0.25547676721964	0
35.208333333333	-0.18219221742148	0
35.708333333333	-0.2387661469701	0
35.441046090277	-0.5931718193262	0
35.45290631576	-0.95379856085734	0
35.70812240921	-0.698735711152	0
36.050519698408	-0.25547676721968	0
36.690375288162	-0.21877391554364	0
35.958333333333	-0.18219221742148	0
34.235269600634	-0.41546210057935	0
32.208333333333	-0.2387661469701	0
32.934959366612	-0.45109912789561	0
32.792685916704	-0.44747845211775	0
32.858171772505	-0.67133812517072	0
32.958333333333	-0.18219221742148	0
33.042201332917	-0.23977536109438	0
33.848127708251	-0.28948918465337	0
34.957949532547	-0.38392172835889	0
35.875	-0.23876614697007	0
35.944843158997	-0.43530908955502	0
32.536286685006	-0.40603924551192	0
33.237310849698	-0.27881126206792	0
36.817063962986	-0.25702488420531	0
32.664367687552	-0.38592135740673	0
32.633652907719	-0.60814928213289	0
32.76753587472	-0.3073987632612	0
37.25	0	0
31.5	-0.25	0
31.5	-0.5	0
31.722799259218	-0.37945201992996	0
32.046738521494	-0.22919272145228	0
31.893211896935	-0.19201974332415	0
33.153962094585	-0.37577934239472	0
33.356266217005	-0.46536433714934	0
32.222789340504	-0.49550314123279	0
32.208654674798	-0.35436291793965	0
35.737449917633	-0.41305513315982	0
37.5	-0.5	0
37.5	-0.25	0
37.356886217184	-0.375	0
37.308843572405	-0.19115642759522	0
37.5	0	0
32.388211887396	-0.67682333972317	0
31.923784766265	-0.54236795003266	0
32.091808686615	-0.63710636932662	0
32.875	-0.23876614697007	0
33.477230964699	-0.35078395033319	0
35.910271247724	-0.64231649102473	0
35.146492677091	-0.7632651157781	0
35.275130131511	-0.44839077887896	0
35.469873714089	-0.39570899511142	0
36.530720924191	-0.48525177569186	0
36.703430397599	-0.40445925111306	0
34.219696387702	-0.7383062664077	0
34.34003186557	-0.57469808291833	0
33.14703589639	-0.66463813102345	0
31.5	-1	0
31.85086046382	-0.86807245687994	0
36.914859484231	-0.44990795630253	0
33.606553506435	-0.6084548926858	0
33.618301908252	-0.44127014939299	0
33.010483868667	-1.0077286011134	0
36.811329134519	-0.69851339906145	0
33.787705057961	-0.79157383018685	0
34.837057063405	-0.62204527404192	0
37.221377875989	-0.67457110982012	0
37.053928463665	-0.5815999054913	0
36.983644337429	-0.90546911975274	0
31.5	-1.6666666666667	0
31.825570505482	-1.3333333333333	0
34.617852129104	-0.46951000309737	0
31.75	0	0
34.422628532299	-0.74647998205497	0
36.323984230706	-0.57992151527157	0
36.535914350832	-0.76966030986363	0
36.108894283849	-0.5745214260663	0
31.5	0	0
32.195817063255	-0.98677382136151	0
34.5	-1.6666666666667	0
34.307622521347	-1.0785546580208	0
33.841792566393	-1.2322630102272	0
36.911235654504	-1.2997003063753	0
37.5	-1	0
33.419857273549	-0.97430742608071	0
37.174325422113	-0.32450830281233	0
32.64123864026	-1.011664111338	0
37.225195424337	-0.49586438948828	0
35.902656499978	-1.0053900712269	0
36.084389651043	-0.82758492116963	0
34.737053088305	-1.0413254114256	0
35.625	-1.6666666666667	0
35.28434527132	-1.2911314449633	0
35.25	-1.6666666666667	0
36	-1.6666666666667	0
35.945439500317	-1.336895224825	0
36.75	-1.6666666666667	0
36.628214203069	-1.2526623195309	0
36.39004967866	-1.4126353594217	0
36.72768537567	-0.94337104710943	0
36.1365185442	-1.0626419641906	0
36.334403160224	-0.91367924388974	0
32.829322015259	-1.334398704182	0
33.243742406985	-1.340992235785	0
34.875	-1.6666666666667	0
36.168024437128	-1.2882842837902	0
36.35655963071	-1.1603719760769	0
33.75	-1.6666666666667	0
37.5	-1.4166666666667	0
37.125	-1.6666666666667	0
36.375	-1.6666666666667	0
35.65177784599	-1.2062809678107	0
32.25	-1.6666666666667	0
32.457672550832	-1.3348157617403	0
32.625	-1.6666666666667	0
33	-1.6666666666667	0
37.5	-1.6666666666667	0
CELLS 478 1912
3	0	1	2	
3	3	4	5	
3	6	7	8	
3	9	10	11	
3	12	13	14	
3	15	16	17	
3	17	18	15	
3	19	16	15	
3	20	21	22	
3	23	24	18	
3	7	10	8	
3	25	26	27	
3	28	24	29	
3	30	31	32	
3	33	34	35	
3	33	28	34	
3	36	37	38	
3	39	40	41	
3	21	42	43	
3	44	45	46	
3	27	47	25	
3	26	48	27	
3	49	50	51	
3	42	20	47	
3	52	53	54	
3	55	43	56	
3	57	58	59	
3	37	60	38	
3	61	25	20	
3	62	63	64	
3	26	65	48	
3	66	67	68	
3	69	31	30	
3	69	30	70	
3	71	50	62	
3	4	72	5	
3	60	73	38	
3	5	6	8	
3	74	73	75	
3	73	60	75	
3	76	4	77	
3	78	79	9	
3	66	80	67	
3	78	81	82	
3	57	83	58	
3	28	29	34	
3	83	84	58	
3	59	85	57	
3	86	87	88	
3	89	23	17	
3	84	83	90	
3	89	17	16	
3	9	8	10	
3	81	78	11	
3	23	18	17	
3	90	87	84	
3	34	29	91	
3	11	78	9	
3	20	42	21	
3	92	74	75	
3	93	72	76	
3	94	95	96	
3	55	22	21	
3	93	7	6	
3	97	31	98	
3	99	46	45	
3	72	93	6	
3	100	101	102	
3	48	65	70	
3	45	103	99	
3	104	39	105	
3	106	44	107	
3	44	46	107	
3	39	92	40	
3	103	108	99	
3	109	22	110	
3	74	92	104	
3	111	112	113	
3	106	107	114	
3	115	116	117	
3	118	111	113	
3	37	119	97	
3	118	120	111	
3	121	122	8	
3	123	124	52	
3	123	95	94	
3	125	90	83	
3	124	126	53	
3	125	127	88	
3	96	128	94	
3	119	32	31	
3	40	75	60	
3	85	59	105	
3	128	129	130	
3	108	103	77	
3	131	132	133	
3	134	132	130	
3	57	85	135	
3	136	46	137	
3	131	138	139	
3	140	107	46	
3	64	141	142	
3	141	143	142	
3	106	114	112	
3	144	145	146	
3	123	52	95	
3	133	138	131	
3	99	108	137	
3	124	53	52	
3	147	143	148	
3	64	63	141	
3	149	150	151	
3	152	150	149	
3	132	134	133	
3	129	153	134	
3	67	80	154	
3	129	128	96	
3	154	146	145	
3	150	148	155	
3	146	154	80	
3	156	96	95	
3	151	157	149	
3	158	159	54	
3	147	142	143	
3	160	126	120	
3	161	141	49	
3	88	87	90	
3	155	143	141	
3	33	35	56	
3	147	148	152	
3	51	71	139	
3	62	50	63	
3	155	162	163	
3	80	164	146	
3	165	157	151	
3	66	165	166	
3	5	72	6	
3	4	76	72	
3	82	81	86	
3	79	78	82	
3	24	23	29	
3	91	29	23	
3	22	35	110	
3	43	55	21	
3	56	35	55	
3	35	34	110	
3	69	98	31	
3	32	119	36	
3	47	20	25	
3	109	20	22	
3	20	109	61	
3	69	70	65	
3	40	92	75	
3	39	104	92	
3	105	39	85	
3	135	85	39	
3	77	4	108	
3	137	108	4	
3	113	140	167	
3	95	52	54	
3	168	118	113	
3	160	120	118	
3	140	114	107	
3	113	112	114	
3	126	160	53	
3	54	53	160	
3	130	129	134	
3	129	156	169	
3	170	171	172	
3	141	161	162	
3	173	49	51	
3	51	139	138	
3	166	151	174	
3	157	165	68	
3	155	148	143	
3	150	152	148	
3	71	51	50	
3	51	175	173	
3	9	121	8	
3	137	46	99	
3	86	88	82	
3	79	121	9	
3	88	90	125	
3	176	121	127	
3	23	89	177	
3	178	179	180	
3	69	181	182	
3	37	36	119	
3	97	60	37	
3	135	83	57	
3	135	41	183	
3	121	79	127	
3	3	137	4	
3	113	114	140	
3	140	46	184	
3	167	168	113	
3	160	118	168	
3	156	129	96	
3	174	151	150	
3	66	68	165	
3	49	63	50	
3	66	166	80	
3	133	134	153	
3	173	185	186	
3	82	88	79	
3	127	79	88	
3	35	22	55	
3	187	110	101	
3	188	97	98	
3	133	185	175	
3	80	166	189	
3	101	110	34	
3	190	191	179	
3	31	97	119	
3	61	26	25	
3	151	166	165	
3	166	174	189	
3	109	190	192	
3	127	125	183	
3	155	163	150	
3	193	145	144	
3	194	195	196	
3	91	23	177	
3	135	183	83	
3	39	41	135	
3	54	117	95	
3	51	138	175	
3	197	16	198	
3	34	91	101	
3	187	101	100	
3	65	26	181	
3	199	200	188	
3	201	100	202	
3	54	160	158	
3	160	168	158	
3	185	169	203	
3	138	133	175	
3	117	156	95	
3	185	133	153	
3	125	83	183	
3	3	5	122	
3	204	205	206	
3	207	205	208	
3	201	209	100	
3	197	198	14	
3	187	109	110	
3	12	210	211	
3	158	168	167	
3	141	63	49	
3	80	189	164	
3	144	146	164	
3	16	197	89	
3	177	102	91	
3	201	202	12	
3	202	100	102	
3	178	212	192	
3	188	200	213	
3	26	61	212	
3	178	192	179	
3	137	3	136	
3	214	203	172	
3	215	170	216	
3	115	170	172	
3	185	153	169	
3	169	116	203	
3	169	153	129	
3	159	158	216	
3	217	170	115	
3	163	218	219	
3	13	89	197	
3	91	102	101	
3	177	89	13	
3	102	177	202	
3	182	199	98	
3	0	220	221	
3	199	178	222	
3	40	213	41	
3	175	185	173	
3	203	115	172	
3	223	224	195	
3	211	210	224	
3	98	69	182	
3	201	211	209	
3	189	219	225	
3	200	226	227	
3	187	100	209	
3	199	188	98	
3	184	216	167	
3	180	228	222	
3	109	192	61	
3	181	212	182	
3	8	122	5	
3	140	184	167	
3	169	156	116	
3	150	163	174	
3	229	225	219	
3	173	161	49	
3	196	195	210	
3	212	181	26	
3	1	227	226	
3	2	1	230	
3	46	136	184	
3	170	217	216	
3	159	117	54	
3	216	184	215	
3	115	117	217	
3	158	167	216	
3	136	231	184	
3	117	159	217	
3	163	162	218	
3	232	233	234	
3	191	190	187	
3	177	13	202	
3	195	224	210	
3	235	236	223	
3	222	178	180	
3	200	199	222	
3	213	200	227	
3	176	122	121	
3	231	136	237	
3	116	156	117	
3	207	208	193	
3	122	237	3	
3	136	3	237	
3	14	13	197	
3	19	238	198	
3	187	209	191	
3	213	40	60	
3	199	182	178	
3	176	127	0	
3	12	202	13	
3	201	12	211	
3	220	239	221	
3	223	236	224	
3	225	164	189	
3	219	174	163	
3	218	240	241	
3	242	240	161	
3	60	97	188	
3	243	194	238	
3	244	209	211	
3	180	179	191	
3	245	246	247	
3	222	226	200	
3	19	198	16	
3	12	14	210	
3	221	176	0	
3	234	248	249	
3	231	215	184	
3	226	222	250	
3	185	203	186	
3	60	188	213	
3	122	176	221	
3	207	206	205	
3	207	193	144	
3	164	251	144	
3	251	206	207	
3	191	252	180	
3	1	0	183	
3	65	181	69	
3	186	161	173	
3	246	220	2	
3	178	182	212	
3	218	241	229	
3	206	253	204	
3	109	187	190	
3	196	210	14	
3	192	190	179	
3	183	41	227	
3	159	216	217	
3	207	144	251	
3	206	251	253	
3	252	191	209	
3	221	237	122	
3	239	231	237	
3	162	155	141	
3	14	198	196	
3	196	198	238	
3	0	2	220	
3	240	162	161	
3	225	229	233	
3	254	255	214	
3	224	244	211	
3	164	225	251	
3	233	253	251	
3	232	253	233	
3	249	204	232	
3	41	213	227	
3	256	215	231	
3	233	251	225	
3	204	253	232	
3	227	1	183	
3	237	221	239	
3	116	115	203	
3	189	174	219	
3	212	61	192	
3	127	183	0	
3	257	258	259	
3	232	234	249	
3	239	220	246	
3	2	230	247	
3	256	239	246	
3	257	260	261	
3	218	162	240	
3	230	1	226	
3	229	234	233	
3	186	242	161	
3	228	180	252	
3	219	218	229	
3	262	263	264	
3	231	239	256	
3	242	186	214	
3	214	186	203	
3	242	214	255	
3	241	265	229	
3	215	171	170	
3	240	242	255	
3	265	234	229	
3	214	172	254	
3	266	255	254	
3	240	255	267	
3	238	194	196	
3	250	222	228	
3	250	230	226	
3	252	268	228	
3	269	250	228	
3	259	258	270	
3	271	272	266	
3	267	265	241	
3	250	247	230	
3	246	2	247	
3	228	268	269	
3	250	269	247	
3	234	265	248	
3	247	273	245	
3	266	272	267	
3	272	263	265	
3	266	261	271	
3	264	271	260	
3	249	248	274	
3	275	274	248	
3	266	254	261	
3	272	265	267	
3	258	215	256	
3	171	254	172	
3	240	267	241	
3	255	266	267	
3	261	260	271	
3	271	264	272	
3	260	276	264	
3	276	262	264	
3	263	262	248	
3	265	263	248	
3	272	264	263	
3	244	252	209	
3	246	245	256	
3	257	277	258	
3	171	277	254	
3	277	261	254	
3	277	171	258	
3	257	261	277	
3	215	258	171	
3	270	258	256	
3	278	279	236	
3	236	244	224	
3	279	280	268	
3	269	268	281	
3	281	273	269	
3	247	269	273	
3	248	262	275	
3	256	245	270	
3	235	278	236	
3	279	268	252	
3	244	236	279	
3	281	268	280	
3	275	282	274	
3	244	279	252	
3	278	280	279	
CELL_TYPES 478
5 5 5 5 5 5 5 5 5 5 5 5 5 5 5 5 5 5 5 5 5 5 5 5 5 5 5 5 5 5 5 5 5 5 5 5 5 5 5 5 5 5 5 5 5 5 5 5 5 5 5 5 5 5 5 5 5 5 5 5 5 5 5 5 5 5 5 5 5 5 5 5 5 5 5 5 5 5 5 5 5 5 5 5 5 5 5 5 5 5 5 5 5 5 5 5 5 5 5 5 5 5 5 5 5 5 5 5 5 5 5 5 5 5 5 5 5 5 5 5 5 5 5 5 5 5 5 5 5 5 5 5 5 5 5 5 5 5 5 5 5 5 5 5 5 5 5 5 5 5 5 5 5 5 5 5 5 5 5 5 5 5 5 5 5 5 5 5 5 5 5 5 5 5 5 5 5 5 5 5 5 5 5 5 5 5 5 5 5 5 5 5 5 5 5 5 5 5 5 5 5 5 5 5 5 5 5 5 5 5 5 5 5 5 5 5 5 5 5 5 5 5 5 5 5 5 5 5 5 5 5 5 5 5 5 5 5 5 5 5 5 5 5 5 5 5 5 5 5 5 5 5 5 5 5 5 5 5 5 5 5 5 5 5 5 5 5 5 5 5 5 5 5 5 5 5 5 5 5 5 5 5 5 5 5 5 5 5 5 5 5 5 5 5 5 5 5 5 5 5 5 5 5 5 5 5 5 5 5 5 5 5 5 5 5 5 5 5 5 5 5 5 5 5 5 5 5 5 5 5 5 5 5 5 5 5 5 5 5 5 5 5 5 5 5 5 5 5 5 5 5 5 5 5 5 5 5 5 5 5 5 5 5 5 5 5 5 5 5 5 5 5 5 5 5 5 5 5 5 5 5 5 5 5 5 5 5 5 5 5 5 5 5 5 5 5 5 5 5 5 5 5 5 5 5 5 5 5 5 5 5 5 5 5 5 5 5 5 5 5 5 5 5 5 5 5 5 5 5 5 5 5 5 5 5 5 5 5 5 5 5 5 5 5 5 5 5 5 5 5 5 5 5 5 5 5 5 5 5 5 5 5 5 5 5 5 5 5 5 5 5 5 5 5 5 5 5 5 
CELL_DATA 478
SCALARS Coverage double 1
LOOKUP_TABLE default
1.9851887790236 2.6283139338603 2.8098382765686 3.4334027820029 1.962766235113 2.3261820270691 2.8173780226693 2.8664991663 2.6742364576066 3.2327225033665 2.9956004724966 3.0083846240709 3.2291170810575 3.1072784438758 2.8805354802107 2.9619187425225 3.3527805772282 2.5436456764691 3.0693337361862 3.0064173278558 3.4047008114743 3.0570251402975 2.6175315611699 3.2638988061737 2.9557379395349 3.3891596470594 3.3730275859487 2.9806689379337 2.7271988129285 3.3822022633881 2.8503140820809 3.1333624320864 2.9254876032462 3.293850624875 3.0451690940562 2.828771204717 3.1043735354528 2.6765270640846 3.159114024276 2.8433640128378 3.2420072516008 2.8294944328313 2.5296116133493 3.063178848641 2.9676971644093 2.7733106651128 3.1039334944493 3.2128297438348 3.4899808655692 2.4853956177267 3.0488661482238 2.370967275613 2.9416430265952 3.3855519178262 2.5689087878824 3.537705982021 2.5561699038192 2.9868407680217 2.8587979501152 2.700942986345 3.34733646073 2.834962913557 2.8020547660613 3.228194945256 2.6679099028095 2.9935426474445 2.8233083217935 2.1294796004248 3.2611493301074 3.4869450907724 3.0989971837059 3.319505622422 2.8610865839138 2.7191116722423 2.9740019952587 2.4389531267588 3.1064612126981 3.1305781819617 3.0069587387085 2.3190724169001 2.8367927931808 2.7622523752272 3.1610659984746 2.5012002124969 3.3402223836103 3.192881181813 2.7695294354814 3.1044117007553 2.6146977126891 3.0695402756739 3.0106554527037 2.7052479785591 3.4110734977917 3.4112770879228 3.4299272464118 3.0662412830471 3.3918255625257 2.8590812533968 2.5131454568388 3.323901537027 2.7017076421459 3.2608010537366 2.8280648648199 3.3200590226642 2.5565513707958 3.0771846760267 2.9384992930693 2.8377778161608 3.0370389888684 2.950549018202 3.0045336530703 2.7300923917295 3.2567474774517 2.9317010854656 2.704568776524 2.8335774832389 2.9339430496377 3.0310253154499 2.5916213979517 2.3739787417818 2.6326647342774 2.9096460550534 2.4645237385605 3.0483733737897 3.1538592173412 2.4652951517611 3.0166377897448 2.5705397298735 3.3496457466306 3.3120353664258 3.1952385511737 2.9910098327307 2.2694095307041 2.1979428477619 2.8145003187078 2.5773217868236 2.7043411250634 3.0777638386957 3.1672208475852 2.7863095475294 2.7998707218904 2.5682918986074 2.6248339799376 3.0071933542804 2.8915318836554 2.5879747637537 2.7081875995867 3.3764845732663 3.0398680469131 2.5046005610979 2.550967178837 2.7969636054269 2.610157932046 2.7971611297108 3.0902642271598 2.9553496640536 3.1288730937099 2.8659922323976 2.6545701634608 2.6982710112237 2.7238068153251 2.6941064385844 2.7487453679292 3.0110298231098 2.9377539216903 2.6991133158246 2.8265923024527 2.5929454170927 1.7989394557333 2.2911342501898 2.492115948162 2.8576131691575 2.4226883729471 3.1959320746488 2.6736721381116 2.8022416610744 2.8618839139324 2.4964967137144 2.6948802856696 2.7147666095104 3.0155672954162 2.6890078084758 2.8156443334802 2.4427826908872 2.3728033728811 1.9004753314711 2.5447833776907 2.8599268171688 2.8426064039789 2.7593355564104 2.5081366182299 2.5365764192042 2.6767690365824 2.8828849932652 2.5631976393179 2.5642376488272 2.544631298398 2.7597010859884 2.4840063064996 2.7297158802947 2.8262149033938 2.4651312515634 2.6659731451925 2.3289159725501 2.7799376581184 2.6054605775334 2.7818086891976 2.2099743991893 2.5392590277163 2.5333269219178 2.2992427576981 2.4069251923529 1.9288008885596 2.736189352694 2.7764992345415 2.5843074525136 2.2531133914366 2.2254118776033 2.477184918687 2.4016518387252 2.7229436451334 1.5252594144183 2.4063354554382 2.5949708461753 2.7278546129838 2.6081454737596 2.6305954613752 2.2930303923043 2.4026540845644 2.0481872288179 2.657363514905 2.2402177848566 1.918260500756 2.612587944752 2.4713398110434 2.3787277271135 2.6978117281447 2.4930773956152 2.5537727100668 2.566445158093 2.4572503060988 1.3958203292042 1.5814057537345 1.756237617853 2.1010084190994 2.2398360089698 1.6521543643227 2.4404372175294 2.6429707172469 2.2014173977045 2.3173995730908 2.3039818152698 2.2968235096498 1.8828967125525 2.0607009891474 2.2430092212241 2.2741879990172 2.595224986074 2.0830396812224 2.5329721021923 1.9879728409477 2.0416897974005 2.0414807683297 2.4816484086782 2.3392390024671 2.5835313398404 2.3616890467404 2.1708390654276 2.0121572325141 2.225011469593 2.2913681926888 2.2596922816449 2.181345893741 2.3964537881097 1.988143146146 2.0116723900824 2.4149721078966 2.4280523125395 2.0966157692883 1.1415402749533 1.4691225910033 2.5634997885087 1.6215864046202 1.9566243529661 2.0837358231902 1.8283624187047 2.4030432417636 2.3497243538246 1.5619518643527 2.3959324531354 2.4495097060477 2.4676011503483 2.5252448834391 2.458618487036 2.3379874597378 1.7099533062113 2.3395887881981 1.5738776668665 2.5217190299287 2.0783568093774 1.7934119399673 2.4253555875267 2.1778903690766 2.4576596411914 2.1490833687742 2.2681971000394 2.3632332169586 2.1640451167865 2.383915594173 2.1045594430309 1.3027544187984 1.9219147123411 2.1490942325048 1.4043855245801 0.73368278257047 1.8141230867794 2.0376180277931 2.1996075420291 2.356320046935 2.2006645777581 2.4180263865055 1.7916779578454 2.2874635086039 2.3602558474763 2.1064872650419 2.6378951960305 1.7341784705411 2.5134363743499 2.2259837919853 2.3141183115391 2.0156725477266 1.7344344761095 1.8555742975071 0.99076890856509 1.9758175470299 2.1602690994013 1.7250878559236 1.9906850565078 2.7041982360354 1.7354165115703 1.414612694304 1.7900929361531 1.0309031387327 1.94141272178 2.4791735092761 1.7987429057894 2.191541250544 0.9175828594213 1.9974352230073 1.6846277527533 2.2542649469669 2.465044361504 2.1933501232085 1.5778849092559 2.0383721230814 2.0215693308395 1.683088022538 1.5288947357399 2.2650048578128 2.6625493880047 2.2346817763395 1.5737743280914 2.2895623980235 1.5760253354629 1.4100424088718 2.1269829915895 1.7370475712289 2.1136400968472 2.3963628032995 2.2805282916999 1.9518947962989 1.6039848589014 1.4743062919051 2.1713732468939 1.9673299054222 2.4192114198006 1.9521894176625 2.010179106509 1.8619733268271 2.0856808272072 1.557856694082 1.5864114290176 1.3089900689492 1.894405783811 1.5868085807571 1.4086936626014 1.1040928421541 2.3044795056004 1.6067968569856 1.6511558575368 1.3613033329334 2.2694945199156 1.9766875652513 2.2455818619677 2.0997142626885 2.4155032355538 2.4193990986306 0.72472979511388 1.0691091124942 1.5953842728452 1.4694626240963 1.4560791115465 0.66012585842034 1.9727565969097 1.8893893452997 1.3384175270252 2.0896663492113 1.3662723957747 1.7720999283801 0.6274069927183 1.6849283253009 1.9889855181626 2.0956583464598 1.7846651300892 1.3283671118336 1.7889450880793 1.7740600507504 1.2183614874352 1.7000549603405 1.3497083596877 1.5591040574662 1.7583133152086 1.4625140494514 1.6700982534066 1.1227633864881 1.1899722555634 0.70768884067481 0.99787615034023 1.2868492239687 1.3868280533747 1.3299810593612 1.0279355739763 1.125965220553 1.0004025330341 0.81095633123822 1.1483348293027 0.94411259956278 0.95779299226859 0.70255814847793 0.64996464593191 0.52250926561102 1.1315142166618 1.1205773117593 1.3189189578492 1.5645288014782 1.5245168166942 1.3338579303971 0.77450086375576 0.84113958324409 0.53644162302859 0.50077456274964 0.63810093926936 0.8832758128791 0.80977747281045 1.2818045574588 1.0956333941008 0.90288847438176 1.2781067687457 1.0913227915419 1.1749324872779 0.87151444394929 1.3938925274073 0.94265162169859 0.7634327784034 1.0606936889388 0.81000446567155 0.84091335692259 0.78131499260909 0.90150782131127 0.52224545015327 0.82585695711323 0.67158584837794 0.98413142748474 0.97425937472194 0.74917830942382 0.36936230458216 1.0634608835805 0.73435447603658 
SCALARS Marker double 1
LOOKUP_TABLE default
0 1 2 3 4 5 6 7 8 9 10 11 12 13 14 15 16 17 18 19 20 21 22 23 24 25 26 27 28 29 30 31 32 33 34 35 36 37 38 39 40 41 42 43 44 45 46 47 48 49 50 51 52 53 54 55 56 57 58 59 60 61 62 63 64 65 66 67 68 69 70 71 72 73 74 75 76 77 78 79 80 81 82 83 84 85 86 87 88 89 90 91 92 93 94 95 96 97 98 99 100 101 102 103 104 105 106 107 108 109 110 111 112 113 114 115 116 117 118 119 120 121 122 123 124 125 126 127 128 129 130 131 132 133 134 135 136 137 138 139 140 141 142 143 144 145 146 147 148 149 150 151 152 153 154 155 156 157 158 159 160 161 162 163 164 165 166 167 168 169 170 171 172 173 174 175 176 177 178 179 180 181 182 183 184 185 186 187 188 189 190 191 192 193 194 195 196 197 198 199 200 201 202 203 204 205 206 207 208 209 210 211 212 213 214 215 216 217 218 219 220 221 222 223 224 225 226 227 228 229 230 231 232 233 234 235 236 237 238 239 240 241 242 243 244 245 246 247 248 249 250 251 252 253 254 255 256 257 258 259 260 261 262 263 264 265 266 267 268 269 270 271 272 273 274 275 276 277 278 279 280 281 282 283 284 285 286 287 288 289 290 291 292 293 294 295 296 297 298 299 300 301 302 303 304 305 306 307 308 309 310 311 312 313 314 315 316 317 318 319 320 321 322 323 324 325 326 327 328 329 330 331 332 333 334 335 336 337 338 339 340 341 342 343 344 345 346 347 348 349 350 351 352 353 354 355 356 357 358 359 360 361 362 363 364 365 366 367 368 369 370 371 372 373 374 375 376 377 378 379 380 381 382 383 384 385 386 387 388 389 390 391 392 393 394 395 396 397 398 399 400 401 402 403 404 405 406 407 408 409 410 411 412 413 414 415 416 417 418 419 420 421 422 423 424 425 426 427 428 429 430 431 432 433 434 435 436 437 438 439 440 441 442 443 444 445 446 447 448 449 450 451 452 453 454 455 456 457 458 459 460 461 462 463 464 465 466 467 468 469 470 471 472 473 474 475 476 477 
SCALARS Resistivity double 1
LOOKUP_TABLE default