# vtk DataFile Version 3.0
d-2__ created by libgimli-v1.5.0-1-g5991b6ac
ASCII
DATASET UNSTRUCTURED_GRID
POINTS 275 double
13.5	-1.6666666666667	0
13.825570505483	-1.3333333333333	0
13.5	-1	0
16.625	-0.27380702240065	0
16.625	-0.13804348840204	0
16.518663902413	-0.18940103023301	0
16.458333333333	-0.087886572211468	0
16.416666666667	0	0
16.375	-0.13804348840204	0
16.291666666667	-0.087886572211468	0
16.333333333333	0	0
16.25	0	0
14.090538744189	-0.44421833665944	0
14.108034841328	-0.29684379366814	0
13.975011134358	-0.3557772349081	0
14.083333333333	0	0
14.041666666667	-0.13804348840204	0
14.125	-0.087886572211466	0
14.166666666667	0	0
14	0	0
14.708333333333	-0.13804348840204	0
14.625	-0.087886572211466	0
14.571273919549	-0.15094638411797	0
14.208333333333	-0.13804348840204	0
14.25	0	0
14.791666666667	-0.087886572211465	0
14.875	-0.13804348840203	0
14.833333333333	0	0
14.333333333333	0	0
14.291666666667	-0.087886572211465	0
15.083333333333	0	0
15.125	-0.087886572211466	0
15.166666666667	0	0
14.416666666667	0	0
14.375	-0.13804348840203	0
14.458333333333	-0.087886572211465	0
15.25	0	0
15.291666666667	-0.087886572211465	0
15.333333333333	0	0
15.625	-0.13804348840203	0
15.518663902413	-0.18940103023303	0
15.625	-0.27380702240062	0
14.666666666667	0	0
14.583333333333	0	0
16.916666666667	0	0
16.833333333333	0	0
16.875	-0.13804348840204	0
14.75	0	0
14.916666666667	0	0
17.98747163413	-0.5056358037932	0
18.050519698408	-0.25547676721966	0
17.843533331918	-0.29816134131379	0
17.458333333333	-0.087886572211464	0
17.404607252882	-0.15094638411797	0
17.541666666667	-0.13804348840203	0
14.541666666667	-0.073574282071768	0
14.5	0	0
15.791666666667	-0.087886572211465	0
15.833333333333	0	0
15.75	0	0
15.375	-0.13804348840203	0
14.791666666667	-0.18219221742148	0
18.166666666667	0	0
18.208333333333	-0.087886572211464	0
18.25	0	0
14.958333333333	-0.087886572211465	0
18.791666666667	-0.087886572211468	0
18.833333333333	0	0
18.75	0	0
15.041666666667	-0.13804348840204	0
15	0	0
18.083333333333	0	0
18.125	-0.07357428207177	0
16.541666666667	-0.073574282071767	0
15.416666666667	0	0
15.5	0	0
15.458333333333	-0.087886572211465	0
16.583333333333	0	0
16.666666666667	0	0
16.226291378505	-0.21877391554365	0
16.432011579996	-0.40775209656411	0
18.148002764253	-0.18940103023303	0
18.208717134119	-0.38392172835888	0
18.291666666667	-0.13804348840203	0
16.208333333333	-0.07357428207177	0
16.166666666667	0	0
16.125	-0.072182208352023	0
15.875	-0.13804348840203	0
15.916666666667	0	0
15.708333333333	-0.07357428207177	0
16.083333333333	0	0
16	0	0
16.041666666667	-0.13804348840203	0
14.125	-0.18219221742147	0
15.958333333333	-0.087886572211464	0
14.291666666667	-0.18219221742148	0
15.541666666667	-0.07357428207177	0
16.5	0	0
17.583333333333	0	0
17.625	-0.087886572211466	0
15.237940586216	-0.15094638411797	0
15.136111778917	-0.20065391017952	0
16.791666666667	-0.087886572211468	0
14.350733185273	-0.43425998658045	0
14.395540045204	-0.27753669533405	0
14.297361575098	-0.28024272799091	0
16.75	0	0
15.583333333333	0	0
15.666666666667	0	0
16.958333333333	-0.087886572211464	0
17	0	0
17.041666666667	-0.13804348840203	0
16.708333333333	-0.07357428207177	0
14.650397296319	-0.25702488420529	0
14.523708621495	-0.21877391554366	0
17.083333333333	0	0
17.125	-0.087886572211466	0
17.166666666667	0	0
17.208333333333	-0.13804348840203	0
17.25	0	0
15.208333333333	-0.073574282071768	0
17.291666666667	-0.087886572211464	0
16.165334880767	-0.15260258505374	0
17.5	0	0
17.416666666667	0	0
17.333333333333	0	0
17.375	-0.07357428207177	0
16.086941669094	-0.2859797646022	0
15.958333333333	-0.18219221742147	0
17.666666666667	0	0
17.708333333333	-0.07357428207177	0
17.125	-0.18219221742148	0
17.228873378537	-0.27753669533404	0
17.833333333333	0	0
17.875	-0.13804348840204	0
17.916666666667	0	0
17.791666666667	-0.087886572211468	0
17.75	0	0
16.731336097587	-0.18940103023302	0
17.041666666667	-0.23876614697008	0
16.958333333333	-0.18219221742147	0
17.958333333333	-0.087886572211464	0
18	0	0
18.333333333333	0	0
18.375	-0.087886572211466	0
19.124752694808	-0.11296503030675	0
19	0	0
18.958333333333	-0.087886572211468	0
18.041666666667	-0.13804348840203	0
17.369620976373	-0.40603607246707	0
17.604159114629	-0.34842263547806	0
17.483730629652	-0.25702488420531	0
18.416666666667	0	0
18.458333333333	-0.07357428207177	0
18.583333333333	0	0
18.541666666667	-0.13804348840203	0
18.625	-0.087886572211466	0
18.5	0	0
17.636111778917	-0.20065391017952	0
18.875	-0.13804348840204	0
18.916666666667	0	0
18.43533056908	-0.18940103023302	0
18.708333333333	-0.07357428207177	0
18.666666666667	0	0
15.731336097587	-0.18940103023303	0
18.385963434616	-0.36114994877356	0
18.999752694808	-0.25100851870879	0
18.737940586216	-0.15094638411797	0
17.357041954828	-0.21877391554366	0
17.737940586216	-0.15094638411797	0
18.690375288162	-0.21877391554366	0
17.958333333333	-0.18219221742147	0
14.208333333333	-0.23876614697008	0
15.356266217005	-0.46536433714938	0
15.606553506435	-0.60845489268579	0
15.618301908252	-0.441270149393	0
14.958333333333	-0.18219221742148	0
15.042201332917	-0.23977536109437	0
15.848127708251	-0.2894891846534	0
16.848127708251	-0.28948918465343	0
16.726596951268	-0.4234584073117	0
14.536286685006	-0.40603924551192	0
15.237310849698	-0.27881126206792	0
17.731548923005	-0.26700761442393	0
18.817063962986	-0.25702488420529	0
14.388211887396	-0.67682333972309	0
17.184065504659	-0.43422319923747	0
17.545209981036	-0.61464357222601	0
14.664367687552	-0.38592135740673	0
14.76753587472	-0.3073987632612	0
18.552290248164	-0.29580321144285	0
19.25	0	0
13.5	-0.25	0
13.5	-0.5	0
13.722799259219	-0.37945201993023	0
14.046738521494	-0.22919272145229	0
13.893211896935	-0.19201974332413	0
14.222789340504	-0.49550314123265	0
14.208654674798	-0.3543629179396	0
17.130694908432	-0.28024272799092	0
16.907115884997	-0.43487734236883	0
19.5	-0.5	0
19.5	-0.25	0
19.356886217184	-0.375	0
19.308843572405	-0.19115642759521	0
19.5	0	0
15.153962094585	-0.37577934239472	0
14.934959366612	-0.45109912789562	0
15.477230964699	-0.35078395033318	0
14.875	-0.23876614697008	0
13.85086046382	-0.86807245687917	0
13.923784766266	-0.54236795003234	0
14.091808686615	-0.63710636932621	0
17.041897355025	-0.3545575021244	0
16.950100433703	-0.28398118611486	0
17.746371622197	-0.43057135368151	0
16.032578222437	-0.80532093838502	0
15.849544373742	-0.54152517708978	0
15.784989056824	-0.78171328519553	0
17.045779100149	-0.5143168838031	0
14.633652907719	-0.6081492821329	0
16.235269600634	-0.41546210057925	0
15.14703589639	-0.66463813102344	0
17.798122080496	-0.68908130839227	0
18.703430397599	-0.40445925111313	0
18.914859484231	-0.44990795630246	0
17.247599241801	-0.70334449364573	0
19.053928463665	-0.58159990549132	0
19.221377875989	-0.67457110982012	0
19.225195424337	-0.49586438948828	0
14.858171772505	-0.67133812517062	0
14.792685916704	-0.44747845211772	0
14.64123864026	-1.0116641113379	0
18.530720924191	-0.4852517756918	0
18.323984230706	-0.57992151527177	0
18.746070739038	-0.72060716412098	0
13.75	0	0
17.849430697053	-0.99522786547226	0
18.043693421774	-0.75311160759413	0
16.849047319116	-0.69970565535729	0
19.000856094841	-0.87446921301307	0
19.5	-1	0
16.346412380513	-0.73751448832674	0
16.197219808451	-0.60879769141009	0
13.5	0	0
14.195817063255	-0.98677382136035	0
18.512369350266	-0.71824350459	0
18	-1.6666666666667	0
18.051778272566	-1.3024535658708	0
17.54268225478	-1.3246684327942	0
17.604860290622	-0.8788438191921	0
19.174325422113	-0.32450830281231	0
16.044357375602	-0.48446139747036	0
15	-1.6666666666667	0
15.206125099555	-1.3297942376278	0
14.829322015259	-1.3343987041819	0
15.869677046039	-1.2036539771306	0
16.267835818867	-1.1340075598643	0
17.043947453281	-1.1807973577914	0
17.25	-1.6666666666667	0
18.75	-1.6666666666667	0
19.013091550828	-1.3141602648437	0
18.625304590967	-1.106556793762	0
18.375	-1.6666666666667	0
18.189043391347	-0.96114657873573	0
15.010483868666	-1.007728601113	0
15.418824709958	-0.98030613924876	0
15.375	-1.6666666666667	0
16.5	-1.6666666666667	0
14.25	-1.6666666666667	0
14.457672550832	-1.3348157617402	0
14.625	-1.6666666666667	0
16.125	-1.6666666666667	0
15.75	-1.6666666666667	0
19.5	-1.6666666666667	0
CELLS 464 1856
3	0	1	2	
3	3	4	5	
3	6	7	8	
3	9	10	11	
3	12	13	14	
3	15	16	17	
3	17	18	15	
3	19	16	15	
3	20	21	22	
3	23	24	18	
3	7	10	8	
3	25	26	27	
3	28	24	29	
3	30	31	32	
3	33	34	35	
3	33	28	34	
3	36	37	38	
3	39	40	41	
3	21	42	43	
3	44	45	46	
3	27	47	25	
3	26	48	27	
3	49	50	51	
3	42	20	47	
3	52	53	54	
3	55	43	56	
3	57	58	59	
3	37	60	38	
3	61	25	20	
3	62	63	64	
3	26	65	48	
3	66	67	68	
3	69	31	30	
3	69	30	70	
3	71	72	62	
3	4	73	5	
3	60	74	38	
3	5	6	8	
3	75	74	76	
3	74	60	76	
3	77	4	78	
3	79	80	8	
3	81	82	83	
3	84	85	86	
3	57	87	58	
3	28	29	34	
3	87	88	58	
3	59	89	57	
3	90	91	92	
3	93	23	17	
3	94	92	91	
3	93	17	16	
3	9	8	10	
3	85	84	11	
3	23	18	17	
3	91	88	94	
3	34	29	95	
3	9	11	84	
3	20	42	21	
3	96	75	76	
3	97	73	77	
3	98	54	99	
3	55	22	21	
3	97	7	6	
3	100	31	101	
3	102	46	45	
3	73	97	6	
3	103	104	105	
3	48	65	70	
3	45	106	102	
3	107	39	108	
3	44	109	110	
3	109	111	110	
3	39	96	40	
3	106	112	102	
3	113	22	114	
3	75	96	107	
3	115	116	117	
3	111	115	110	
3	63	83	64	
3	117	118	119	
3	37	120	100	
3	118	121	119	
3	122	9	84	
3	123	124	52	
3	123	54	98	
3	89	59	108	
3	124	125	126	
3	127	92	128	
3	99	129	98	
3	120	32	31	
3	40	76	60	
3	112	106	78	
3	99	130	129	
3	118	131	132	
3	133	134	135	
3	136	133	137	
3	102	112	138	
3	139	111	140	
3	141	142	135	
3	119	121	125	
3	64	83	143	
3	83	144	143	
3	126	53	52	
3	145	146	147	
3	117	116	118	
3	148	142	141	
3	54	123	52	
3	149	150	151	
3	152	144	153	
3	136	134	133	
3	154	155	156	
3	154	157	155	
3	99	54	158	
3	159	67	66	
3	67	159	160	
3	152	153	157	
3	160	147	146	
3	148	71	142	
3	147	160	159	
3	161	144	83	
3	162	163	156	
3	153	161	155	
3	152	143	144	
3	53	151	54	
3	63	62	72	
3	57	89	164	
3	83	82	165	
3	33	35	56	
3	159	166	147	
3	154	156	163	
3	162	167	66	
3	5	73	6	
3	4	77	73	
3	86	85	90	
3	122	84	86	
3	24	23	29	
3	95	29	23	
3	22	35	114	
3	43	55	21	
3	56	35	55	
3	35	34	114	
3	69	101	31	
3	32	120	36	
3	47	20	25	
3	113	20	22	
3	20	113	61	
3	69	70	65	
3	40	96	76	
3	39	107	96	
3	88	87	94	
3	128	94	87	
3	108	39	89	
3	164	89	39	
3	78	4	112	
3	138	112	4	
3	115	111	116	
3	131	116	111	
3	53	121	168	
3	124	126	52	
3	44	46	109	
3	140	109	46	
3	125	121	126	
3	121	118	168	
3	81	72	148	
3	129	130	137	
3	136	130	169	
3	158	54	151	
3	136	137	130	
3	167	156	170	
3	163	162	68	
3	161	153	144	
3	155	157	153	
3	71	148	72	
3	171	50	148	
3	9	79	8	
3	138	46	102	
3	90	92	86	
3	122	79	9	
3	92	94	128	
3	5	80	3	
3	23	93	172	
3	173	174	175	
3	69	176	177	
3	37	36	120	
3	100	60	37	
3	164	87	57	
3	164	41	178	
3	79	122	127	
3	179	3	180	
3	168	118	132	
3	118	116	131	
3	136	169	134	
3	135	134	141	
3	50	81	148	
3	148	141	171	
3	83	63	81	
3	156	155	170	
3	66	68	162	
3	81	63	72	
3	66	167	159	
3	169	99	158	
3	141	134	171	
3	86	92	122	
3	127	122	92	
3	35	22	55	
3	181	114	104	
3	182	100	101	
3	121	53	126	
3	53	168	151	
3	99	169	130	
3	150	183	158	
3	134	51	171	
3	159	167	184	
3	104	114	34	
3	181	103	185	
3	31	100	120	
3	61	26	25	
3	165	161	83	
3	149	132	186	
3	150	149	187	
3	50	171	51	
3	156	167	162	
3	167	170	184	
3	113	188	189	
3	127	128	178	
3	161	190	155	
3	191	146	145	
3	192	193	194	
3	95	23	172	
3	195	16	196	
3	34	95	104	
3	181	104	103	
3	65	26	176	
3	181	113	114	
3	197	103	198	
3	164	178	87	
3	39	41	164	
3	111	109	140	
3	131	139	199	
3	138	179	46	
3	132	131	199	
3	168	149	151	
3	149	168	132	
3	128	87	178	
3	179	180	200	
3	201	202	203	
3	204	202	205	
3	206	177	207	
3	195	196	14	
3	159	184	166	
3	145	147	166	
3	16	195	93	
3	172	105	95	
3	197	198	12	
3	198	103	105	
3	113	189	61	
3	182	173	208	
3	26	61	209	
3	193	210	211	
3	207	177	209	
3	12	211	212	
3	131	111	139	
3	186	199	213	
3	179	140	46	
3	140	179	214	
3	138	4	3	
3	139	213	199	
3	151	150	158	
3	51	183	215	
3	13	93	195	
3	95	105	104	
3	172	93	13	
3	105	172	198	
3	177	206	101	
3	216	217	218	
3	197	185	103	
3	207	209	189	
3	140	214	139	
3	200	219	213	
3	219	186	213	
3	139	214	213	
3	2	210	193	
3	220	188	181	
3	101	69	177	
3	206	173	182	
3	150	187	215	
3	199	186	132	
3	179	200	214	
3	213	214	200	
3	181	185	220	
3	208	40	60	
3	206	182	101	
3	179	138	3	
3	150	215	183	
3	209	61	189	
3	176	209	177	
3	80	5	8	
3	79	127	221	
3	183	169	158	
3	155	190	170	
3	215	49	51	
3	49	82	50	
3	194	193	211	
3	209	176	26	
3	173	206	222	
3	217	175	174	
3	50	82	81	
3	223	215	187	
3	184	224	225	
3	172	13	198	
3	149	226	187	
3	51	169	183	
3	227	228	229	
3	222	207	230	
3	197	212	185	
3	217	174	218	
3	207	189	231	
3	232	220	185	
3	175	208	173	
3	221	80	79	
3	233	165	234	
3	51	134	169	
3	204	205	191	
3	190	165	233	
3	235	225	224	
3	14	13	195	
3	19	236	196	
3	223	237	238	
3	49	234	82	
3	189	188	231	
3	212	211	210	
3	239	226	219	
3	228	240	241	
3	60	100	182	
3	178	41	175	
3	12	198	13	
3	197	12	212	
3	216	242	243	
3	188	220	231	
3	225	166	184	
3	224	170	190	
3	239	200	180	
3	201	229	228	
3	3	80	180	
3	243	80	221	
3	113	181	188	
3	244	192	236	
3	245	185	212	
3	207	231	230	
3	222	174	173	
3	220	232	230	
3	19	196	16	
3	12	14	211	
3	186	226	149	
3	226	186	219	
3	60	182	208	
3	242	239	180	
3	234	246	233	
3	227	240	228	
3	204	203	202	
3	247	248	249	
3	240	227	235	
3	242	180	80	
3	187	226	250	
3	204	191	145	
3	166	251	145	
3	251	203	204	
3	230	231	220	
3	208	175	41	
3	2	1	210	
3	200	239	219	
3	203	229	201	
3	40	208	41	
3	194	211	14	
3	178	252	127	
3	253	254	255	
3	190	233	224	
3	235	224	233	
3	227	251	225	
3	161	165	190	
3	178	217	252	
3	216	256	257	
3	204	145	251	
3	203	251	229	
3	65	176	69	
3	217	178	175	
3	14	196	194	
3	194	196	236	
3	206	207	222	
3	221	127	252	
3	249	258	259	
3	165	82	234	
3	166	225	251	
3	227	229	251	
3	184	170	224	
3	241	201	228	
3	235	227	225	
3	260	261	262	
3	246	235	233	
3	235	262	240	
3	263	262	248	
3	241	240	261	
3	80	243	242	
3	221	252	243	
3	216	243	252	
3	216	252	217	
3	264	246	234	
3	262	264	248	
3	223	49	215	
3	49	238	234	
3	210	245	212	
3	265	266	222	
3	265	230	232	
3	174	266	218	
3	262	261	240	
3	236	192	194	
3	250	258	249	
3	250	223	187	
3	266	174	222	
3	222	230	265	
3	216	257	242	
3	254	253	267	
3	218	256	216	
3	232	255	265	
3	255	254	265	
3	237	223	250	
3	234	238	264	
3	49	223	238	
3	226	239	258	
3	264	238	237	
3	245	232	185	
3	266	256	218	
3	268	258	257	
3	247	249	259	
3	237	248	264	
3	269	270	1	
3	1	245	210	
3	270	271	255	
3	257	272	268	
3	250	226	258	
3	272	257	256	
3	239	242	257	
3	237	250	249	
3	263	260	262	
3	249	248	237	
3	0	269	1	
3	270	255	232	
3	245	1	270	
3	253	255	271	
3	273	256	267	
3	256	266	254	
3	256	273	272	
3	257	258	239	
3	268	259	258	
3	264	262	246	
3	235	246	262	
3	248	247	263	
3	245	270	232	
3	269	271	270	
3	256	254	267	
3	266	265	254	
3	260	274	261	
3	241	261	274	
CELL_TYPES 464
5 5 5 5 5 5 5 5 5 5 5 5 5 5 5 5 5 5 5 5 5 5 5 5 5 5 5 5 5 5 5 5 5 5 5 5 5 5 5 5 5 5 5 5 5 5 5 5 5 5 5 5 5 5 5 5 5 5 5 5 5 5 5 5 5 5 5 5 5 5 5 5 5 5 5 5 5 5 5 5 5 5 5 5 5 5 5 5 5 5 5 5 5 5 5 5 5 5 5 5 5 5 5 5 5 5 5 5 5 5 5 5 5 5 5 5 5 5 5 5 5 5 5 5 5 5 5 5 5 5 5 5 5 5 5 5 5 5 5 5 5 5 5 5 5 5 5 5 5 5 5 5 5 5 5 5 5 5 5 5 5 5 5 5 5 5 5 5 5 5 5 5 5 5 5 5 5 5 5 5 5 5 5 5 5 5 5 5 5 5 5 5 5 5 5 5 5 5 5 5 5 5 5 5 5 5 5 5 5 5 5 5 5 5 5 5 5 5 5 5 5 5 5 5 5 5 5 5 5 5 5 5 5 5 5 5 5 5 5 5 5 5 5 5 5 5 5 5 5 5 5 5 5 5 5 5 5 5 5 5 5 5 5 5 5 5 5 5 5 5 5 5 5 5 5 5 5 5 5 5 5 5 5 5 5 5 5 5 5 5 5 5 5 5 5 5 5 5 5 5 5 5 5 5 5 5 5 5 5 5 5 5 5 5 5 5 5 5 5 5 5 5 5 5 5 5 5 5 5 5 5 5 5 5 5 5 5 5 5 5 5 5 5 5 5 5 5 5 5 5 5 5 5 5 5 5 5 5 5 5 5 5 5 5 5 5 5 5 5 5 5 5 5 5 5 5 5 5 5 5 5 5 5 5 5 5 5 5 5 5 5 5 5 5 5 5 5 5 5 5 5 5 5 5 5 5 5 5 5 5 5 5 5 5 5 5 5 5 5 5 5 5 5 5 5 5 5 5 5 5 5 5 5 5 5 5 5 5 5 5 5 5 5 5 5 5 5 5 5 5 5 5 5 5 5 5 5 5 5 5 5 5 5 5 
CELL_DATA 464
SCALARS Coverage double 1
LOOKUP_TABLE default
0.60432523188957 2.5982932998442 3.0122641700624 3.3230556405374 1.758125385105 2.222522840657 2.6490994716842 2.794685453441 2.5095106774949 3.2770634207256 3.2047611974854 2.8855185452605 3.304982066674 3.0911879713945 2.5974206541231 2.8245625578384 3.3607309862906 2.5827183673907 2.8084790559528 3.1560408376943 3.3067772422822 3.0587957696931 2.1872066903353 3.2957703913608 2.7656005438749 3.0445729394438 3.2524175419282 2.9662213389367 2.6527469121507 3.4226494738319 2.9382020587556 3.0004231658101 2.9125509142855 3.3426331511616 3.1626142644874 2.7812104531354 2.9636284098717 2.8104074351227 3.0800773520839 2.7287900791919 3.1697058326458 2.4881871969788 2.4067120162419 3.068225596358 2.9129307193714 2.6974677142326 3.0861972457214 2.9377584867327 3.489417313183 2.3613887295432 3.0091054905049 2.2521570042394 3.0421033627598 3.3340773768427 2.3997015659208 3.5176343067881 2.4473951568642 2.8712772724284 2.6793269334031 2.6764640414674 3.3690880910045 3.0321908000449 2.5062191770712 3.3489081595557 2.616223445256 2.9357134626638 2.8796446743055 2.1350085542444 3.3812309528187 3.3055849265969 3.1277596486055 3.4907011081335 3.1498833063528 2.7894121993368 2.9299146255165 2.3009344834176 3.1183681442237 3.211130475055 3.3496243912456 2.964377188173 3.3756923750359 2.8270105694527 2.9803409926829 2.7825900025215 3.3627911477068 3.3352405836402 3.205574783497 3.2011211450253 2.6522502931715 3.1977051146148 3.0018988351412 2.598600343336 3.3878768440164 3.1114872063452 2.5613511928623 3.1275927405761 3.2867185550539 2.781122816111 2.6819837863826 3.4503021517684 3.4357988030657 3.3815405067031 2.9404693753132 2.8969451183454 2.2097676123014 3.0184660139795 3.2045986332952 2.8894255916898 2.2415207562967 2.954566233045 2.9443276202744 2.7896109127877 3.3185742306434 2.8016116037626 2.5651341734382 2.8337540582969 3.2890822397585 2.954383745906 3.2612582532149 2.5105509838996 2.6779371429179 2.7117772561022 2.6935763553327 3.0731211334305 2.6010349640669 3.083287802094 2.7016416418986 2.254700447617 2.9983513937614 2.245081190124 2.8144905746234 2.498968008108 2.7767768136397 3.0107382717002 3.1706096926089 2.861170404643 2.6031537376381 2.4820940046376 2.3693107352205 2.6357607370666 2.5893658691395 2.4486828684662 2.6197251085104 3.3428968892361 2.7653406766373 2.409453045696 2.4827804884208 2.9214897931728 2.5711246709008 2.8790897204295 3.0569805759458 2.7780207620403 2.9794205258911 2.9178931231099 3.0614900768713 2.8302948828235 3.0000496246426 2.7464602120474 2.7408727269573 3.0808310114072 3.1087923195848 2.8845958932686 3.1196356654928 2.7316105593644 2.6867399486938 3.3615328909721 2.7675091553322 2.5984003142044 2.9023433028622 2.3912385338479 3.0162067974122 2.6692973855589 2.7862695398748 2.9459085521345 2.6270367394491 2.8220768005766 2.723035258886 3.0569298940434 2.6583685888268 2.8544725180388 2.3980851826744 2.2743168382085 1.9860249610468 2.5551576276446 3.05298005366 2.8222469379651 2.6814440735782 2.4635638678994 2.5112817466364 2.31261255311 2.5494003856956 2.7630377836642 2.7355361535687 3.1050294255821 2.4466018760058 2.8139585572554 2.7281335575174 2.5944420754395 2.6224157902405 2.7764403129889 2.4621950760321 2.7795373209361 2.8928754101493 2.8647091555618 2.6310735011672 2.4803930253423 2.1816704361761 2.4901395264371 2.9295842436231 2.5298943987727 2.9753547442006 2.3719281158226 2.6148132437414 2.3187792347996 2.2758113564615 1.8045172734294 2.6786972669205 2.6647787284968 2.3901819317798 2.2234311420856 2.0729145654923 2.4249778058112 2.5289959116637 2.2329313208261 2.1859561324318 2.4727886453949 2.4490240644531 2.7843556821734 1.4315420149273 2.3667583209013 2.0311060753496 2.4223234984669 2.0145254242246 2.6823979085495 2.1766733111305 1.8394222618431 2.4986242941673 2.6723798096316 2.828903525433 2.4778462615574 2.5486269816275 2.4455395805548 2.3473147231521 2.3368698772474 2.5651599258454 2.2267910268655 1.5037727320498 1.7548317601076 2.2300923139962 1.8867577884745 2.1176310451571 2.2291666768624 2.1797466046955 2.2641537291259 1.7598770413412 1.9969379134207 2.3189318028373 2.2404052814977 2.5448657668121 1.2222517752065 2.312576897766 1.4839813452636 2.5961126036028 2.2632710497709 2.6419792252938 2.469891900488 2.6136415482257 2.3708267986599 2.3832239699719 2.2171636197853 2.0648102668172 2.2194549369726 2.1882126764274 2.1509324136291 2.3578407262246 1.7560452182987 1.7084153575193 2.2477401351806 2.5257735578494 2.1627105700534 2.1564963518701 2.3898374947243 0.98790185650153 1.8889334978899 2.4752585118765 2.2256933529465 2.0382708812882 2.3049022712888 2.319201716697 2.2720229031743 1.7189347202445 2.4429053399997 2.3690263179613 2.4601843492717 2.2003640302201 2.4005033127407 2.446861532496 2.5444140660851 2.3332248598691 2.5458112248669 2.3872812279105 2.0706982268114 2.099578769582 1.4114043895391 2.5149535928856 2.0444775004096 1.9662727534362 2.2820206458123 1.8831937110668 1.900855822008 2.0396332638858 1.9477232380759 2.421152665621 1.4231977114814 1.871344686351 1.5322768937047 1.8159971080386 2.1294774455902 1.4454989609413 2.1159247680918 2.2734139372502 1.891441636681 2.5403374124381 1.9574163798573 2.0397881421409 1.7014159863982 1.8783744910523 2.6011036827807 1.5816322296956 1.9292456821886 2.0944194416228 1.3092209898594 1.9088784114849 1.1092252321548 2.7014036156324 2.2821009329096 1.8588917493212 1.5989803273654 1.7729777252194 1.9482119725915 1.9324714941211 2.1309428612183 2.060747621581 1.368348822307 2.2471609814797 2.0777295436833 2.0670031211434 1.6655816711604 1.3209738243292 1.97784265045 1.9023766559197 1.5370390089764 2.0695779003601 1.6091081006496 2.0524833641302 2.0191178028911 2.4257141725625 1.9233627136991 1.6903819661766 1.3130441912832 1.6837745721281 0.94580394852246 1.3604633904351 2.0413098806684 1.7501431108935 2.1753858614313 2.0212828935623 1.7706351262737 1.8185971251868 2.2209391642522 0.83902277138578 2.026651439168 1.457515119848 2.3947414172933 1.5671327364863 2.260310349218 0.81604730473266 1.9630986208748 1.7348301051045 1.6620321487269 2.2524208433245 2.1095388090251 1.3858752719545 1.9990264143244 1.6246194988981 2.6868828010515 2.096964491783 1.7717840435455 1.9375518595287 2.0543000454949 2.1784710585863 1.0670553452284 1.9812262845676 1.8621143676216 1.5673870599726 2.0628068923941 1.1575632560673 1.5538192626597 0.80990460446399 1.5831385628989 1.2285623507903 0.91359321717341 0.96147933644062 1.9475673820237 2.0373473187362 1.8718088896747 1.9037387905724 1.5307753001323 1.1406836983026 1.9094226237559 1.7680240142573 1.1493395018869 1.4693666705412 1.3684579444696 1.6398855553946 1.0064170871242 1.6904080679327 1.3046419578649 1.7243953931374 1.6601410982614 1.5900206335512 1.5834146391455 0.75532899595907 1.5213792147753 1.1017299347069 1.0265817612207 1.5572244344467 1.5684773733831 1.7543392533975 1.6652652103725 1.4342394751133 1.2112519267497 1.415194861717 1.1340900266564 0.89171713579178 1.2501498030486 0.6451598344656 0.92912507932699 0.73456031012534 0.96533395505366 1.5701433291595 1.1057389030806 1.6530145360072 1.3478137136927 0.78305804632332 1.1555929368519 0.54310316921541 0.92995119828683 0.84719374193745 0.68562132201584 0.85686637544397 1.195814277727 0.89561906193511 1.4881905544707 0.98498333742894 1.301325500063 1.3546707402243 0.79236958971218 0.99072326392192 0.62940646759798 0.94080384675308 1.2077101765343 0.63981762591706 0.69957481000309 
SCALARS Marker double 1
LOOKUP_TABLE default
0 1 2 3 4 5 6 7 8 9 10 11 12 13 14 15 16 17 18 19 20 21 22 23 24 25 26 27 28 29 30 31 32 33 34 35 36 37 38 39 40 41 42 43 44 45 46 47 48 49 50 51 52 53 54 55 56 57 58 59 60 61 62 63 64 65 66 67 68 69 70 71 72 73 74 75 76 77 78 79 80 81 82 83 84 85 86 87 88 89 90 91 92 93 94 95 96 97 98 99 100 101 102 103 104 105 106 107 108 109 110 111 112 113 114 115 116 117 118 119 120 121 122 123 124 125 126 127 128 129 130 131 132 133 134 135 136 137 138 139 140 141 142 143 144 145 146 147 148 149 150 151 152 153 154 155 156 157 158 159 160 161 162 163 164 165 166 167 168 169 170 171 172 173 174 175 176 177 178 179 180 181 182 183 184 185 186 187 188 189 190 191 192 193 194 195 196 197 198 199 200 201 202 203 204 205 206 207 208 209 210 211 212 213 214 215 216 217 218 219 220 221 222 223 224 225 226 227 228 229 230 231 232 233 234 235 236 237 238 239 240 241 242 243 244 245 246 247 248 249 250 251 252 253 254 255 256 257 258 259 260 261 262 263 264 265 266 267 268 269 270 271 272 273 274 275 276 277 278 279 280 281 282 283 284 285 286 287 288 289 290 291 292 293 294 295 296 297 298 299 300 301 302 303 304 305 306 307 308 309 310 311 312 313 314 315 316 317 318 319 320 321 322 323 324 325 326 327 328 329 330 331 332 333 334 335 336 337 338 339 340 341 342 343 344 345 346 347 348 349 350 351 352 353 354 355 356 357 358 359 360 361 362 363 364 365 366 367 368 369 370 371 372 373 374 375 376 377 378 379 380 381 382 383 384 385 386 387 388 389 390 391 392 393 394 395 396 397 398 399 400 401 402 403 404 405 406 407 408 409 410 411 412 413 414 415 416 417 418 419 420 421 422 423 424 425 426 427 428 429 430 431 432 433 434 435 436 437 438 439 440 441 442 443 444 445 446 447 448 449 450 451 452 453 454 455 456 457 458 459 460 461 462 463 
SCALARS Resistivity double 1
LOOKUP_TABLE default