# vtk DataFile Version 3.0
d-2__ created by libgimli-v1.5.0-1-g5991b6ac
ASCII
DATASET UNSTRUCTURED_GRID
POINTS 257 double
25.5	-0.25	0
25.643267391024	-0.375	0
25.690940791558	-0.19094079155751	0
28.625	-0.27380702240065	0
28.625	-0.13804348840204	0
28.518663902413	-0.18940103023301	0
28.458333333333	-0.087886572211468	0
28.416666666667	0	0
28.375	-0.13804348840204	0
28.291666666667	-0.087886572211468	0
28.333333333333	0	0
28.25	0	0
26.083333333333	0	0
26.041666666667	-0.13804348840203	0
26.125	-0.087886572211466	0
26.166666666667	0	0
26	0	0
26.708333333333	-0.13804348840203	0
26.666666666667	0	0
26.625	-0.087886572211466	0
26.208333333333	-0.07357428207177	0
26.75	0	0
26.791666666667	-0.087886572211464	0
26.333333333333	0	0
26.25	0	0
26.291666666667	-0.087886572211468	0
27.166666666667	0	0
27.208333333333	-0.07357428207177	0
27.25	0	0
26.416666666667	0	0
26.375	-0.13804348840204	0
26.458333333333	-0.087886572211468	0
27.291666666667	-0.087886572211468	0
27.333333333333	0	0
27.625	-0.13804348840204	0
27.518663902413	-0.18940103023301	0
27.625	-0.27380702240065	0
26.583333333333	0	0
28.916666666667	0	0
28.833333333333	0	0
28.875	-0.13804348840204	0
26.833333333333	0	0
26.875	-0.07357428207177	0
29.98747163413	-0.5056358037932	0
30.050519698408	-0.25547676721966	0
29.843533331918	-0.29816134131379	0
29.458333333333	-0.087886572211464	0
29.404607252882	-0.15094638411797	0
29.541666666667	-0.13804348840203	0
26.5	0	0
27.791666666667	-0.087886572211468	0
27.833333333333	0	0
27.75	0	0
27.231336097587	-0.18940103023302	0
27.125	-0.13804348840204	0
25.705488373266	-0.59091608366499	0
26.007921013115	-0.8717186506847	0
25.91135296792	-0.47048281487414	0
30.166666666667	0	0
30.208333333333	-0.087886572211464	0
30.25	0	0
27	0	0
26.916666666667	0	0
26.958333333333	-0.13804348840203	0
30.791666666667	-0.087886572211468	0
30.833333333333	0	0
30.75	0	0
27.041666666667	-0.087886572211464	0
27.083333333333	0	0
30.083333333333	0	0
30.125	-0.07357428207177	0
28.541666666667	-0.073574282071767	0
27.375	-0.13804348840204	0
27.416666666667	0	0
27.5	0	0
27.458333333333	-0.087886572211468	0
28.583333333333	0	0
28.666666666667	0	0
28.226291378505	-0.21877391554365	0
28.432011579996	-0.40775209656411	0
30.148002764253	-0.18940103023303	0
30.208717134119	-0.38392172835888	0
30.291666666667	-0.13804348840203	0
28.208333333333	-0.07357428207177	0
28.166666666667	0	0
28.125	-0.072182208352023	0
27.875	-0.13804348840204	0
26.237940586216	-0.15094638411797	0
27.916666666667	0	0
27.708333333333	-0.07357428207177	0
28.083333333333	0	0
28	0	0
28.041666666667	-0.13804348840203	0
26.190375288162	-0.21877391554366	0
27.958333333333	-0.087886572211464	0
26.541666666667	-0.073574282071767	0
26.571273919549	-0.15094638411796	0
26.317063962986	-0.25702488420529	0
27.541666666667	-0.073574282071767	0
28.5	0	0
29.583333333333	0	0
29.625	-0.087886572211466	0
28.791666666667	-0.087886572211468	0
26.203594889612	-0.40391444725954	0
27.583333333333	0	0
27.666666666667	0	0
28.75	0	0
28.958333333333	-0.087886572211464	0
29	0	0
29.041666666667	-0.13804348840203	0
28.708333333333	-0.07357428207177	0
29.083333333333	0	0
29.125	-0.087886572211466	0
29.166666666667	0	0
29.208333333333	-0.13804348840203	0
29.25	0	0
28.165334880767	-0.15260258505374	0
29.291666666667	-0.087886572211464	0
27.731336097587	-0.18940103023302	0
29.5	0	0
29.416666666667	0	0
29.333333333333	0	0
29.375	-0.07357428207177	0
29.666666666667	0	0
28.086941669094	-0.2859797646022	0
27.958333333333	-0.18219221742147	0
29.125	-0.18219221742148	0
29.228873378537	-0.27753669533404	0
29.708333333333	-0.07357428207177	0
29.041666666667	-0.23876614697008	0
28.958333333333	-0.18219221742147	0
29.833333333333	0	0
29.875	-0.13804348840204	0
29.916666666667	0	0
29.791666666667	-0.087886572211468	0
29.75	0	0
29.958333333333	-0.087886572211464	0
30	0	0
29.483730629652	-0.25702488420531	0
30.333333333333	0	0
30.375	-0.087886572211466	0
29.369620976373	-0.40603607246707	0
29.604159114629	-0.34842263547806	0
31.124752694808	-0.11296503030675	0
31	0	0
30.958333333333	-0.087886572211468	0
30.041666666667	-0.13804348840203	0
30.416666666667	0	0
30.458333333333	-0.07357428207177	0
30.875	-0.13804348840204	0
30.583333333333	0	0
30.541666666667	-0.13804348840203	0
30.625	-0.087886572211466	0
30.5	0	0
30.43533056908	-0.18940103023302	0
30.916666666667	0	0
30.385963434616	-0.36114994877356	0
30.708333333333	-0.07357428207177	0
30.666666666667	0	0
29.636111778917	-0.20065391017952	0
30.999752694808	-0.25100851870879	0
28.731336097587	-0.18940103023302	0
26.851997235747	-0.18940103023303	0
30.737940586216	-0.15094638411797	0
26.523708621495	-0.21877391554365	0
27.133853031742	-0.25547676721968	0
26.949480301592	-0.25547676721966	0
27.041666666667	-0.52911283384145	0
27.041666666667	-0.18219221742147	0
29.357041954828	-0.21877391554366	0
29.737940586216	-0.15094638411797	0
30.690375288162	-0.21877391554366	0
29.958333333333	-0.18219221742147	0
25.875	-0.11303967622539	0
25.75	0	0
26.650397296319	-0.25702488420526	0
27.292050467453	-0.38392172835888	0
27.414390113348	-0.63321254312708	0
27.469144028345	-0.36097200963104	0
27.848127708251	-0.28948918465343	0
28.848127708251	-0.28948918465343	0
28.726596951268	-0.4234584073117	0
29.731548923005	-0.26700761442393	0
30.817063962986	-0.25702488420529	0
26.031958747178	-0.33325463579056	0
26.523689393121	-0.44776195923934	0
29.184065504659	-0.43422319923747	0
29.545209981036	-0.61464357222601	0
30.552290248164	-0.29580321144285	0
31.25	0	0
26.800529041383	-0.37028063139366	0
29.130694908432	-0.28024272799092	0
28.907115884997	-0.43487734236883	0
31.5	-0.5	0
31.5	-0.25	0
31.356886217184	-0.375	0
31.308843572405	-0.19115642759521	0
31.5	0	0
27.681768476189	-0.55823447719905	0
29.041897355025	-0.3545575021244	0
28.950100433703	-0.28398118611486	0
29.746371622197	-0.43057135368151	0
29.045779100149	-0.5143168838031	0
27.615347366628	-0.83560735755964	0
27.971649595913	-0.56775148091581	0
28.235269600634	-0.41546210057925	0
28.346412380513	-0.73751448832674	0
28.007726950717	-0.98664640296265	0
26.322202955504	-0.72835150504623	0
29.798122080496	-0.68908130839227	0
30.703430397599	-0.40445925111313	0
30.914859484231	-0.44990795630246	0
29.247599241801	-0.70334449364573	0
31.053928463665	-0.58159990549132	0
31.221377875989	-0.67457110982012	0
31.225195424337	-0.49586438948828	0
30.530720924191	-0.4852517756918	0
30.323984230706	-0.57992151527177	0
25.84485407481	-1.2957460393421	0
25.743909551686	-0.8528010586154	0
30.746070739038	-0.72060716412098	0
29.604860290622	-0.8788438191921	0
29.043947453281	-1.1807973577914	0
29.54268225478	-1.3246684327942	0
29.849430697053	-0.99522786547226	0
30.043693421774	-0.75311160759413	0
28.849047319116	-0.69970565535729	0
31.000856094841	-0.87446921301307	0
31.5	-1	0
25.845623228308	-0.30002188546398	0
30.512369350266	-0.71824350459	0
30	-1.6666666666667	0
30.051778272566	-1.3024535658708	0
25.5	0	0
27.680522574649	-1.2514855461386	0
27.375	-1.6666666666667	0
27.75	-1.6666666666667	0
31.174325422113	-0.32450830281231	0
25.5	-0.5	0
26.747329141204	-0.71351083399284	0
25.5	-0.75	0
26.348572023727	-1.2023161679924	0
27.179597305363	-1.0673000334922	0
29.25	-1.6666666666667	0
25.5	-1	0
30.75	-1.6666666666667	0
31.013091550828	-1.3141602648437	0
30.625304590967	-1.106556793762	0
30.375	-1.6666666666667	0
30.189043391347	-0.96114657873573	0
28.064690440023	-1.391571216678	0
28.426745644615	-1.201505510398	0
25.5	-1.6666666666667	0
27	-1.6666666666667	0
26.25	-1.6666666666667	0
28.5	-1.6666666666667	0
31.5	-1.6666666666667	0
CELLS 429 1716
3	0	1	2	
3	3	4	5	
3	6	7	8	
3	9	10	11	
3	12	13	14	
3	14	15	12	
3	16	13	12	
3	17	18	19	
3	20	15	14	
3	7	10	8	
3	21	17	22	
3	23	24	25	
3	26	27	28	
3	29	30	31	
3	23	30	29	
3	28	32	33	
3	34	35	36	
3	19	18	37	
3	38	39	40	
3	22	41	21	
3	41	22	42	
3	43	44	45	
3	18	17	21	
3	46	47	48	
3	31	49	29	
3	50	51	52	
3	53	27	54	
3	55	56	57	
3	58	59	60	
3	61	62	63	
3	64	65	66	
3	67	68	61	
3	67	61	63	
3	69	70	58	
3	4	71	5	
3	72	73	33	
3	5	6	8	
3	74	73	75	
3	73	72	75	
3	76	4	77	
3	78	79	8	
3	80	81	82	
3	83	84	85	
3	50	86	51	
3	25	87	30	
3	86	88	51	
3	52	89	50	
3	90	91	92	
3	93	87	14	
3	94	92	91	
3	95	49	31	
3	9	8	10	
3	84	83	11	
3	19	95	96	
3	91	88	94	
3	25	30	23	
3	9	11	83	
3	97	30	87	
3	98	74	75	
3	99	71	76	
3	100	48	101	
3	33	32	72	
3	99	7	6	
3	41	42	62	
3	102	40	39	
3	71	99	6	
3	97	93	103	
3	104	34	105	
3	39	106	102	
3	74	98	104	
3	38	107	108	
3	107	109	108	
3	35	75	72	
3	106	110	102	
3	34	98	35	
3	28	27	32	
3	111	112	113	
3	109	111	108	
3	59	82	60	
3	113	114	115	
3	116	9	83	
3	114	117	115	
3	50	89	118	
3	119	120	46	
3	119	48	100	
3	110	106	77	
3	120	121	122	
3	89	52	105	
3	101	123	100	
3	124	92	125	
3	54	26	68	
3	114	126	127	
3	101	128	123	
3	129	109	130	
3	131	132	133	
3	134	131	135	
3	48	119	46	
3	115	117	121	
3	136	137	133	
3	47	138	48	
3	60	82	139	
3	82	140	139	
3	141	142	138	
3	143	144	145	
3	122	47	46	
3	146	137	136	
3	113	112	114	
3	134	132	131	
3	147	140	148	
3	149	65	64	
3	150	151	152	
3	150	153	151	
3	148	154	151	
3	147	148	153	
3	65	149	155	
3	59	58	70	
3	155	145	144	
3	82	81	156	
3	145	155	149	
3	146	69	137	
3	157	158	152	
3	154	140	82	
3	147	139	140	
3	101	48	159	
3	149	160	145	
3	102	110	161	
3	150	152	158	
3	42	22	162	
3	157	163	64	
3	5	71	6	
3	4	76	71	
3	85	84	90	
3	116	83	85	
3	96	31	164	
3	49	95	37	
3	15	20	24	
3	25	20	87	
3	14	13	93	
3	25	24	20	
3	165	166	167	
3	63	168	67	
3	54	68	67	
3	17	162	22	
3	63	62	42	
3	35	98	75	
3	34	104	98	
3	26	54	27	
3	63	42	162	
3	88	86	94	
3	125	94	86	
3	105	34	89	
3	118	89	34	
3	77	4	110	
3	161	110	4	
3	111	109	112	
3	126	112	109	
3	47	117	169	
3	120	122	46	
3	38	40	107	
3	130	107	40	
3	121	117	122	
3	117	114	169	
3	80	70	146	
3	123	128	135	
3	134	128	170	
3	159	48	138	
3	134	135	128	
3	163	152	171	
3	158	157	66	
3	154	148	140	
3	151	153	148	
3	69	146	70	
3	172	44	146	
3	9	78	8	
3	161	40	102	
3	90	92	85	
3	116	78	9	
3	92	94	125	
3	5	79	3	
3	164	31	30	
3	19	37	95	
3	173	16	174	
3	164	175	96	
3	17	19	96	
3	53	165	176	
3	53	32	27	
3	118	86	50	
3	175	17	96	
3	176	177	178	
3	118	36	179	
3	78	116	124	
3	180	3	181	
3	169	114	127	
3	114	112	126	
3	134	170	132	
3	133	132	136	
3	44	80	146	
3	146	136	172	
3	82	59	80	
3	152	151	171	
3	64	66	157	
3	80	59	70	
3	64	163	149	
3	170	101	159	
3	136	132	172	
3	85	92	116	
3	124	116	92	
3	97	164	30	
3	166	168	63	
3	14	87	20	
3	87	93	97	
3	117	47	122	
3	47	169	138	
3	101	170	128	
3	142	182	159	
3	132	45	172	
3	149	163	183	
3	31	96	95	
3	162	166	63	
3	184	93	13	
3	97	185	164	
3	156	154	82	
3	141	127	186	
3	142	141	187	
3	44	172	45	
3	152	163	157	
3	163	171	183	
3	103	93	184	
3	53	72	32	
3	154	188	151	
3	189	144	143	
3	185	175	164	
3	175	190	162	
3	118	179	86	
3	125	179	124	
3	109	107	130	
3	126	129	191	
3	161	180	40	
3	127	126	191	
3	169	141	138	
3	141	169	127	
3	125	86	179	
3	180	181	192	
3	193	194	195	
3	196	194	197	
3	149	183	160	
3	143	145	160	
3	167	176	165	
3	162	17	175	
3	198	178	177	
3	72	53	176	
3	118	34	36	
3	185	97	103	
3	126	109	129	
3	186	191	199	
3	180	130	40	
3	130	180	200	
3	161	4	3	
3	129	199	191	
3	138	142	159	
3	45	182	201	
3	130	200	129	
3	192	202	199	
3	202	186	199	
3	129	200	199	
3	142	187	201	
3	191	186	127	
3	180	192	200	
3	199	200	192	
3	180	161	3	
3	142	201	182	
3	54	67	168	
3	203	204	198	
3	79	5	8	
3	78	124	205	
3	182	170	159	
3	151	188	171	
3	185	190	175	
3	204	206	205	
3	201	43	45	
3	43	81	44	
3	207	206	204	
3	57	56	208	
3	44	81	80	
3	209	201	187	
3	35	72	178	
3	57	208	103	
3	13	16	173	
3	183	210	211	
3	141	212	187	
3	45	170	182	
3	213	214	215	
3	205	79	78	
3	216	156	217	
3	45	132	170	
3	196	197	189	
3	218	56	219	
3	178	198	36	
3	188	156	216	
3	220	211	210	
3	57	103	184	
3	204	179	198	
3	165	53	54	
3	221	222	223	
3	209	224	225	
3	43	217	81	
3	226	212	202	
3	214	227	228	
3	211	160	183	
3	210	171	188	
3	226	192	181	
3	193	215	214	
3	3	79	181	
3	205	206	79	
3	186	212	141	
3	212	186	202	
3	173	229	13	
3	167	177	176	
3	72	176	178	
3	206	226	181	
3	213	227	214	
3	217	230	216	
3	196	195	194	
3	231	232	223	
3	227	213	220	
3	206	181	79	
3	187	212	221	
3	173	174	2	
3	13	229	184	
3	174	233	2	
3	234	235	236	
3	196	189	143	
3	233	0	2	
3	160	237	143	
3	237	195	196	
3	1	0	238	
3	173	2	229	
3	177	203	198	
3	198	179	36	
3	239	190	185	
3	35	178	36	
3	192	226	202	
3	195	215	193	
3	188	216	210	
3	220	210	216	
3	213	237	211	
3	154	156	188	
3	124	179	204	
3	221	212	222	
3	240	219	55	
3	54	168	165	
3	196	143	237	
3	195	237	215	
3	55	1	238	
3	167	166	190	
3	2	1	229	
3	1	55	57	
3	190	166	162	
3	204	205	124	
3	241	208	56	
3	242	167	239	
3	223	222	243	
3	156	81	217	
3	160	211	237	
3	213	215	237	
3	183	171	210	
3	228	193	214	
3	219	244	218	
3	56	55	219	
3	184	229	57	
3	57	229	1	
3	220	213	211	
3	245	246	247	
3	230	220	216	
3	220	247	227	
3	248	247	232	
3	228	227	246	
3	55	238	240	
3	249	230	217	
3	247	249	232	
3	166	165	168	
3	221	209	187	
3	43	225	217	
3	209	43	201	
3	247	246	227	
3	190	239	167	
3	207	204	203	
3	208	185	103	
3	242	203	177	
3	207	250	251	
3	240	244	219	
3	252	218	244	
3	224	209	221	
3	217	225	249	
3	43	209	225	
3	241	242	239	
3	167	242	177	
3	253	242	241	
3	56	218	241	
3	212	226	222	
3	249	225	224	
3	234	250	207	
3	239	185	208	
3	231	223	243	
3	224	232	249	
3	252	254	218	
3	241	218	254	
3	253	241	254	
3	239	208	241	
3	206	207	251	
3	224	221	223	
3	223	232	224	
3	248	245	247	
3	234	207	203	
3	250	255	251	
3	251	226	206	
3	255	243	222	
3	249	247	230	
3	220	230	247	
3	203	242	234	
3	235	242	253	
3	255	222	251	
3	226	251	222	
3	232	231	248	
3	245	256	246	
3	228	246	256	
3	242	235	234	
3	234	236	250	
3	255	250	236	
CELL_TYPES 429
5 5 5 5 5 5 5 5 5 5 5 5 5 5 5 5 5 5 5 5 5 5 5 5 5 5 5 5 5 5 5 5 5 5 5 5 5 5 5 5 5 5 5 5 5 5 5 5 5 5 5 5 5 5 5 5 5 5 5 5 5 5 5 5 5 5 5 5 5 5 5 5 5 5 5 5 5 5 5 5 5 5 5 5 5 5 5 5 5 5 5 5 5 5 5 5 5 5 5 5 5 5 5 5 5 5 5 5 5 5 5 5 5 5 5 5 5 5 5 5 5 5 5 5 5 5 5 5 5 5 5 5 5 5 5 5 5 5 5 5 5 5 5 5 5 5 5 5 5 5 5 5 5 5 5 5 5 5 5 5 5 5 5 5 5 5 5 5 5 5 5 5 5 5 5 5 5 5 5 5 5 5 5 5 5 5 5 5 5 5 5 5 5 5 5 5 5 5 5 5 5 5 5 5 5 5 5 5 5 5 5 5 5 5 5 5 5 5 5 5 5 5 5 5 5 5 5 5 5 5 5 5 5 5 5 5 5 5 5 5 5 5 5 5 5 5 5 5 5 5 5 5 5 5 5 5 5 5 5 5 5 5 5 5 5 5 5 5 5 5 5 5 5 5 5 5 5 5 5 5 5 5 5 5 5 5 5 5 5 5 5 5 5 5 5 5 5 5 5 5 5 5 5 5 5 5 5 5 5 5 5 5 5 5 5 5 5 5 5 5 5 5 5 5 5 5 5 5 5 5 5 5 5 5 5 5 5 5 5 5 5 5 5 5 5 5 5 5 5 5 5 5 5 5 5 5 5 5 5 5 5 5 5 5 5 5 5 5 5 5 5 5 5 5 5 5 5 5 5 5 5 5 5 5 5 5 5 5 5 5 5 5 5 5 5 5 5 5 5 5 5 5 5 5 5 5 5 5 5 5 5 5 5 5 5 5 5 5 5 5 5 5 5 5 5 5 5 5 5 
CELL_DATA 429
SCALARS Coverage double 1
LOOKUP_TABLE default
1.6492082967683 2.5837100505397 3.0396520932957 3.3182734199029 2.5195931431427 2.83192239218 2.9604996718051 2.8242511225804 2.7176418040638 3.1708469110012 2.8285924913264 3.1056333184687 3.342535950605 2.8029872452055 2.8996584781897 3.3643633689611 2.5487181988093 2.9852036749207 3.1451903918825 3.3365392538821 3.0130893843475 2.2507546978145 3.3135344829318 2.6382414757677 3.2150085594813 3.475499491643 2.6473688450419 1.3531001778264 3.1994131694809 3.3835635347981 2.795617730727 3.4902555818565 2.980786529811 3.0551942222409 2.7732249297078 3.080508416851 2.8135531945179 3.0903289512748 2.8146601448135 3.1962474672347 2.4815783420494 2.3982104396185 3.0463751580072 3.0385519165209 2.4966446318406 3.1421508632346 3.0595790173556 3.4311274072483 2.4245552024905 2.8908604603218 2.7620038525136 2.9847154249459 3.3251875991934 2.6669911696749 3.3860821792193 2.6893741870154 2.8720333719449 2.3509222461821 2.714621276238 3.336480164385 2.922511999458 3.051198607448 3.3692539323771 3.1375696079972 3.014125202415 2.9054038927546 2.0529654766741 3.14117133754 3.4357780760724 3.1503084170791 3.5520176110301 3.0681224929636 2.6984625484765 3.0724542806764 2.7252876873859 3.0240019099318 3.2030883186961 3.4899187257668 2.7364689046314 3.1897597060548 2.7919093924911 3.2705030666606 2.8820186313184 3.1302254996423 3.0982887824255 3.5175670980078 3.0352803850115 3.4796343249815 3.1268095999094 2.6301197034029 3.0076650066698 2.6260856691265 3.0959139057361 2.7202590381958 3.0610160797224 3.3720808576383 2.7277088788306 3.3836992241741 3.4042548542752 2.5577074328519 3.1031750834992 2.7818734864541 2.28176201139 2.128509913908 2.8306646083991 2.898746829088 2.9359751059556 2.954271993211 2.9336715908277 2.4388089623032 2.6461164292277 3.2355075600769 2.6335809693717 3.326778016844 2.5423106965556 2.9254715529634 2.5869068618346 2.2823154005183 2.2395062198232 3.3710216332748 2.5336002138723 2.5789188102523 2.9838613850905 2.7260194975192 2.0403994123273 2.8996192859085 2.742388978347 2.746822516641 2.3776029734519 2.7789685706558 3.0080536838367 3.1190467613421 2.9346677151187 2.5047405263841 3.228023544937 3.1038402301979 2.5597937120124 2.3259982372283 2.6961852906316 2.2651279573594 2.768951631755 2.9861131191774 2.6515667366836 2.9542032119543 2.6144733561097 2.8846517348584 2.9146769383864 2.6990832198633 2.9863043686462 2.75311804933 3.1030757096849 2.9026537243152 3.1853196442588 2.9194189169701 3.0741362793221 2.813745430247 2.907936882814 2.9332216357565 3.08792097199 2.8297217904198 3.0153045526979 2.8493792962735 2.7438513907123 3.3871797161954 2.8101303495774 2.5667920039102 3.1023643608375 2.2320321994783 2.7514837957755 2.7456275466784 2.9679256576633 2.9491378942695 2.6035292952495 2.7375496537883 2.7809663289551 3.0275530734641 2.7068925844345 2.7958083838203 2.4092147211899 2.5311597428736 2.8775888200025 2.7470554662167 2.3644767611792 2.6227228721718 2.3656039892223 2.7882344447916 2.8003397837528 2.4781522500849 2.0863393503425 2.5378608659895 2.5686406599886 2.3356799819339 2.6993486992987 2.7180888128337 2.7354136814909 2.9626513963863 2.5766269129497 2.7621115540547 2.5647234953161 2.3539687250251 2.5565238801225 2.7494847728071 2.3797198464202 2.8467669422588 2.7188907060712 2.8837060062317 2.720803126376 2.3354532721861 2.5787187957981 2.5625052700923 2.2489387056265 3.0284544628645 2.5710011351396 3.0609838296342 2.4636646757285 2.5050429597214 2.1968130392243 2.6548792444089 2.542262671947 2.0827188066114 2.1332561564556 2.4336705055689 2.2532266872737 2.0800490834937 2.4478009138384 2.3529353989354 2.0920977518726 1.9466810595281 2.9032923022292 2.4884566196342 2.5051699476009 2.1768081029154 2.3209704839158 2.6479805446805 2.4944594154999 2.89175908125 2.5391514332136 2.5925559994751 2.5094466312283 2.3891452506949 2.4349427766063 2.5894215205443 2.2445128263687 1.4154801045618 1.6511804524516 2.0058773709534 2.0736029847711 2.1855585389942 2.4840759403836 2.01230528418 2.6221445525886 2.7145276185983 1.9571116794822 2.6497319456126 2.3030542293702 2.6195620950385 2.4996703039357 2.6931951974083 2.4253230510647 2.4116275293651 2.2877058390902 2.5672424281413 2.1650503237335 2.1581666985131 2.4315540899434 2.0723969337571 2.3524912332491 2.3262671037311 2.2992413201381 2.5136916214149 2.2771203205258 2.7160954869965 1.8652153056725 2.5244713608526 2.3733189328539 2.6617089025187 2.2009917594652 2.1167162494923 1.9834568795859 2.1456165162335 2.1687926238854 1.7310163006557 1.3628982220805 2.3710464643285 1.8855781020049 2.4664337826964 1.6107529940834 2.4602243401963 1.7999552685412 1.9159735386949 2.4787254866082 1.3215366285914 2.2942389247327 1.8972586998902 2.5535249987026 1.830800872156 0.99329989830005 2.1900502745909 2.0732187429665 1.5785464583236 1.7577696659309 2.1271163539058 2.5028682773078 1.2024516554753 1.5130075121365 1.9615196798308 1.8613013749921 1.007730720509 1.8716419206597 2.0296827410674 2.0455345864474 1.2612637993073 2.2519483498786 2.0579798592116 2.0215397227436 1.9862345715306 2.1262586130925 1.9885502090394 2.3690651087364 1.8922350347781 1.1988919373652 1.6314254463665 1.5788090011001 0.82821223207862 1.239574545968 2.049352775541 1.6858408951216 2.1270226639978 2.0190455442593 1.9043698218657 0.8611974115373 2.0133230901783 1.7077761661471 1.9067215500016 1.6633156325277 1.4756358748432 2.0045950610141 1.799806686288 2.2926372375333 1.877836914336 2.3984941922119 2.0015723051121 1.3619498567702 1.904864304016 1.6327014451176 1.5564315872996 2.292840896219 2.2689914652339 1.4794847510493 1.1234528543693 2.5362854717627 1.8559697523647 1.5115106421744 1.3764584030043 2.1673160966256 1.7638193936931 1.4920220166469 2.3585575235012 2.1916690316353 1.1662456970869 1.5987739346532 0.96133400741943 1.9991609421354 1.7549256874239 1.455041176888 1.9518277624563 1.0736750860926 0.89357409278216 1.1454606547598 1.7724294704801 1.6776013189658 1.4197557223294 0.72671787596436 1.462817251977 1.0893695020466 0.77304741055111 0.87176249119494 1.2102899205964 1.4351064799605 1.0232820889489 2.4561738315747 1.6680045809016 1.7207585700148 1.9211735084961 0.89262646408946 1.897637354681 1.6761588487459 1.7120191207733 1.5693110570151 1.2254601461123 0.97182456516965 0.66411062337679 1.4799006210016 1.4878640452928 1.7331730887857 1.246416346041 1.6871053621285 0.93356009977964 0.94649094371101 1.5877061652521 1.3441981608156 1.2017011066775 1.6246939505413 0.78536327503999 1.1426516425443 0.60386886323465 0.75767380729457 0.71787932357683 1.3132538845785 1.4823900655637 1.25523714469 1.059902870004 0.65235069097179 1.392943150473 1.0096252831465 1.596837604058 0.88784858030271 1.1721116442022 1.2113861465133 1.3246246459657 0.8709145220836 1.0632008642326 1.3984447598499 0.67397999820837 0.58527207510068 0.6395408966759 1.0318840289667 0.96814756733981 0.87792924362424 
SCALARS Marker double 1
LOOKUP_TABLE default
0 1 2 3 4 5 6 7 8 9 10 11 12 13 14 15 16 17 18 19 20 21 22 23 24 25 26 27 28 29 30 31 32 33 34 35 36 37 38 39 40 41 42 43 44 45 46 47 48 49 50 51 52 53 54 55 56 57 58 59 60 61 62 63 64 65 66 67 68 69 70 71 72 73 74 75 76 77 78 79 80 81 82 83 84 85 86 87 88 89 90 91 92 93 94 95 96 97 98 99 100 101 102 103 104 105 106 107 108 109 110 111 112 113 114 115 116 117 118 119 120 121 122 123 124 125 126 127 128 129 130 131 132 133 134 135 136 137 138 139 140 141 142 143 144 145 146 147 148 149 150 151 152 153 154 155 156 157 158 159 160 161 162 163 164 165 166 167 168 169 170 171 172 173 174 175 176 177 178 179 180 181 182 183 184 185 186 187 188 189 190 191 192 193 194 195 196 197 198 199 200 201 202 203 204 205 206 207 208 209 210 211 212 213 214 215 216 217 218 219 220 221 222 223 224 225 226 227 228 229 230 231 232 233 234 235 236 237 238 239 240 241 242 243 244 245 246 247 248 249 250 251 252 253 254 255 256 257 258 259 260 261 262 263 264 265 266 267 268 269 270 271 272 273 274 275 276 277 278 279 280 281 282 283 284 285 286 287 288 289 290 291 292 293 294 295 296 297 298 299 300 301 302 303 304 305 306 307 308 309 310 311 312 313 314 315 316 317 318 319 320 321 322 323 324 325 326 327 328 329 330 331 332 333 334 335 336 337 338 339 340 341 342 343 344 345 346 347 348 349 350 351 352 353 354 355 356 357 358 359 360 361 362 363 364 365 366 367 368 369 370 371 372 373 374 375 376 377 378 379 380 381 382 383 384 385 386 387 388 389 390 391 392 393 394 395 396 397 398 399 400 401 402 403 404 405 406 407 408 409 410 411 412 413 414 415 416 417 418 419 420 421 422 423 424 425 426 427 428 
SCALARS Resistivity double 1
LOOKUP_TABLE default
141.24019603622 98.656391420004 91.585173322632 72.815723032418 127.4072681715 144.32860462717 124.5798877957 74.635317879101 135.45398791643 97.067063064979 80.244102407355 79.726732807482 35.645014531684 102.92077983609 96.599318853673 209.80342507452 76.881245149406 65.301885886568 65.841307094467 65.115495473572 68.62015869612 108.03870820962 88.906014307498 88.659690339245 106.72812366265 62.598504691716 67.004839780376 214.90787653486 72.478816393605 77.823478943189 88.906293475372 68.152558472418 82.535707147159 84.345354025888 76.601220407753 146.2196320248 83.308676854567 60.952083673617 80.097758121794 84.743938842793 90.941950759859 72.51938748008 88.494179159759 63.742708243039 94.87211529536 52.420002512708 100.33966202491 134.99431045011 108.49226781121 74.556005436873 80.591151271819 82.033308767898 80.184596709096 71.264704539738 47.327396559758 87.913340133462 70.425001273826 98.322661554793 53.318988219897 53.86733989201 112.12308470933 165.83440889419 91.889980084889 66.522341348702 66.352423952189 66.285783295235 109.96590295265 116.33233092132 61.538235849705 62.709939938026 95.364596678634 98.859779674826 64.27048268718 87.210195254459 66.131799633123 94.480989874771 57.802884459649 78.359325985377 64.253086255596 51.63797258087 72.93270280834 157.74773848197 95.464788501894 110.46254389646 81.633419734563 110.77817604252 201.94014887063 143.48849347632 166.04175510047 79.112449014862 40.309122544321 104.02507077497 180.77525292635 111.27199033047 42.277295745367 44.386468549131 82.066489287583 309.58426431895 51.852420261309 85.210660860315 60.140555961106 74.219129040222 104.73612776834 35.888341115587 120.76492126562 73.467607600329 60.748973274122 48.945846789081 108.37481690425 74.321645906773 50.271961830146 68.262116279862 103.42183391583 132.59656957673 82.572558294875 76.382588394696 52.991176684329 78.894941594188 56.823111142619 99.89859417227 27.053278249378 81.372134698655 88.921538369936 104.17633020799 42.904610952263 92.766456358096 31.794693597783 79.594720686779 43.141451002467 72.006858189516 67.492062266381 104.81686287661 80.974279395188 88.647750895149 60.554069948225 136.84090095913 102.52885698492 110.72948374192 102.97009702503 93.139857969631 81.727738904395 56.915432385052 83.764580398214 75.856377775345 55.911513381239 77.491868096835 41.408495965237 83.625990181761 54.088963022266 68.60616637035 126.18976244556 103.73649722574 102.96726808774 104.61028754603 74.498091913944 89.79865496088 122.04052973133 140.73583000959 81.781377389358 95.250899444039 224.03595161614 127.44031227117 80.009180258325 201.78232463753 106.41593662039 91.003417664001 108.4706015954 44.885453403274 21.149109895204 99.482471631999 115.83207512593 88.538338214553 83.051576962111 80.678958055876 85.534989727763 108.54634391632 76.339708684696 73.674189805762 110.26461599814 98.181631730906 63.124404640742 70.329305025563 89.690182886015 75.077248057806 90.011392481584 90.750112068566 81.606193980308 82.600491847768 112.1342271301 94.22358361303 83.780410215744 143.33125824053 112.22389530393 83.957719320039 78.774240805061 51.95553811908 81.903247765726 75.927225497855 67.34045978418 54.751152497474 44.361270296402 73.139027102535 51.091287255962 118.34022415296 69.645568115369 86.940151380282 81.30509935974 100.01523412595 86.574042703002 115.27821094861 104.24647819402 150.85758582493 96.867299500354 139.17390800925 108.05981158175 83.970807726907 43.678290967789 79.664344456265 89.436195275402 105.34943751128 105.40586704242 76.359859542659 126.53461770817 132.07205787154 91.750142532245 37.047424552439 45.886279249672 112.62725144529 116.82139383401 82.838677986555 30.360947587036 99.417910347249 94.496205241657 85.72676086854 87.570167396085 102.6697965649 117.91656854455 103.49851890773 116.05177962351 99.034854214298 108.38768671742 80.418576723985 157.19960412568 105.98325161713 79.264168931205 42.523162224565 38.933566085743 99.932406288006 86.411641846741 126.94314914924 95.845371103491 90.277592192698 118.01987135402 107.4537418185 136.3347484122 105.26164463142 121.50621535897 110.77480217823 128.5763512758 97.93362715396 117.95232035926 121.17594784009 162.97755779385 157.29339033792 131.21487302695 139.56175389196 125.55510677626 140.62013713064 144.65112308738 121.72448657817 120.38041298116 71.965604068668 161.21908684569 92.704107699639 99.43509444438 111.34416378839 66.532315602233 105.84316958047 140.241541781 129.5463140998 105.39633065241 188.35519084589 207.24169176868 84.24307012244 176.16742480252 72.99226923728 158.8847964246 84.344861092244 61.115618631502 167.78856975736 105.83213483078 145.85416269862 105.6059286017 113.42296403419 89.435051204803 64.91337734845 285.46130899491 106.14606032584 89.288820583342 90.167036663789 129.9912828994 126.066821301 78.005244188339 391.10120286717 259.20240423309 128.49082475632 216.09488626523 216.94911929612 51.972293020757 64.524251958447 184.76295669892 150.52915367073 139.73065454304 131.91549394226 154.16783023289 174.29517794308 94.025788929678 123.21405899832 87.865204007628 202.68204739172 177.0632177093 158.3134717936 90.169072822692 452.69315493742 169.31750693707 157.35236863576 232.11814468354 93.146025186772 103.99475065029 111.39465503626 315.64983223604 49.292029463756 128.1837380813 51.424657688628 83.893347818639 165.88259791493 103.92139194673 160.52756563926 109.28264711492 130.80548354046 82.630645426376 188.61611417838 120.10844067007 83.134956120641 105.10905809663 93.473159460283 80.175424144094 107.34569080021 312.78833896245 251.36789046314 78.283064031435 59.886606458497 105.51292391182 189.86419027801 102.91467781597 129.23806931389 182.27952423272 95.129207422173 113.96082269057 244.18462359101 178.33458432674 451.81910056051 104.51517571438 61.956485706451 113.76642082266 54.223565991434 188.02695792734 301.02572127749 251.49759970207 124.71834376907 144.01743851375 113.66653776245 358.00689787663 154.83894234797 226.78397214903 414.46746720397 286.95772748794 221.31432260849 220.09663562541 351.62405608983 85.784757091348 228.96882534592 187.66376677553 168.66522710996 294.24868837771 131.74566925648 197.97510034891 146.45603069582 192.26049081532 291.3179011892 278.15122375154 329.70698170035 283.16563185254 233.06255851285 204.79874097338 246.25210321107 165.77183702885 319.2327531062 293.15071299215 291.65222776257 283.09888262066 286.35893243758 164.00853464079 476.71940098793 351.27509497252 342.45751647451 334.19938262787 345.56005787894 221.49817826163 243.92718354372 364.03281292184 400.52548740648 400.81831713992 245.63965517435 340.03593775328 258.58055564408 445.61436185947 265.70001389846 215.59560841609 249.4815274588 322.72806546034 381.22691876759 324.6799784753 444.94462279828 359.57585055652 335.89961852997 303.41486313701 316.31160738669 336.18322398514 
SCALARS Resistivity_(log10) double 1
LOOKUP_TABLE default