# vtk DataFile Version 3.0
d-3__ created by libgimli-v1.5.0-1-g5991b6ac
ASCII
DATASET UNSTRUCTURED_GRID
POINTS 1483 double
3.3802423101098	12.435481574566	-0.57001420684378
3	12	-0.2857142857143
3.4959596309848	11.998298039034	0
3.2490070092203	12.168560129388	0
6.0395510135596	13.367156253372	-1.2757999763971
6.5930002103947	12.023472734859	-1.2922192071349
5.4998599382803	12.552571297657	-0.59337769664261
5.29662096318	11.932351047571	-1.5392209346082
5.6153020589615	9.1440579133635	-1.0774777831171
5.7237069713611	8.5589744845549	-0.30827017969781
5	9	-0.2857142857143
5.3151026533923	8.4249591108801	-0.38240156963578
2.3178923476779	4.1926464382665	0
2.5373292327812	4.4716333182052	-0.48281884804687
2.3342974478463	4.0018571812202	-0.30572640106363
1.9994701911036	4.4258543307655	0
4.8968211033092	12.507755029533	0
5	12	-0.2857142857143
5.2932790228536	12.494788035524	0
0	0	-0.2857142857143
0.54768630893449	0.55020446432687	-0.60775225926193
-0.16846798780902	-0.24002860812406	-0.65332445545953
-0.28063481777066	0.41453578455018	-0.44890469943706
7.7	3.575	0
7.3102059000399	3.7470939102263	0
7.7	3.6732286664853	-0.53772532608145
7.3176226410905	3.2857280588852	0
-0.7	-0.10798167686939	-0.47517111104905
-0.7	-0.57707899562378	-1.1376990549501
-0.7	-0.61986630133594	-0.43486724047509
6.3962361866998	10.611290418241	-1.3182185489848
6.565939673393	9.5694509864085	-0.57379796778735
7.1295911592009	10.496363016677	-0.48219980545192
6.3839624611364	10.341052129245	-0.35036617584397
7.7	14.3	-2.5
6.7623683783591	12.987112326146	-2.233077027779
7.7	13.059020885286	-3.3539705522597
7.7	13.327367479896	-2.129915020979
1	6	0
1	6	-0.2857142857143
0.93236760237426	6.49128333619	0
1.3454573625665	6.353105459937	0
2	5	-0.2857142857143
2.1684298754346	4.7403793023811	0
3.0226729813355	8.4836106439452	0
2.5164096947204	8.910651700233	-0.41109082170818
3.4071201441719	8.4167381876838	-0.59109415332551
2.5374808587914	8.1383747261781	-0.35604109466584
6.2778911301719	14.3	-0.61136458754231
6.2225356773765	13.691717475418	0
6.5208076177088	13.495118289851	-0.49928801204061
6.7358646795693	14.3	-0.39005656748015
5.7965188279432	13.281940723964	0
5.5320359851605	12.925291312368	0
5.353113789845	13.264183036004	0
5.5919457801018	13.101154188917	-0.33537516396337
7	10	-0.2857142857143
7	10	0
6.5010306427949	10.010760669106	0
6.8196744207924	9.5136576917357	0
7.7	1.1375	0
7.7	1.6430719769933	-0.42557297445049
7.1939383721229	1.4724531054162	0
7.7	1.625	0
6.3572581294301	1.4772201134971	-0.96507376287322
6.5574763981385	0.84898833643366	-0.48332647821142
6.7774291048203	1.7003141153393	-0.4123635555875
6.1433933962903	1.4220674799247	-0.28622251631329
-0.7	9.1984657118068	-1.9278839451739
0.33291529395702	8.3305676904572	-1.2970017952003
-0.7	8.1442617177323	-1.0898260028896
-0.7	7.644268062563	-2.0766032868031
4.508194357046	8.6258793740749	-0.60770874662543
5.0095189690676	8.5009469809039	0
4.7609249278557	8.7686419230913	0
6.2306672701993	2.67753718	0
6.6360398560532	2.4670661479797	-0.44686919005428
6.4910302172834	2.4939022421641	0
6.1550873755842	2.4572757142813	-0.33684154297057
1	1	0
1	1	-0.2857142857143
1.4901571161019	0.99574153349402	0
1.1736530561382	0.72346383359363	0
2	4	-0.2857142857143
2	4	0
1.6440539242474	4.1532454240512	0
7.7	6.9501255673919	-0.74418826283982
7	7	-0.2857142857143
6.7521552376889	6.497772044976	-0.66059363300197
7.7	6.3887218416049	-0.46884913673037
5.9482896260331	7.5800048202495	0
6	8	-0.2857142857143
6.3095291646476	7.6896230263426	0
6.1432247512519	7.3579252770212	-0.41388970597853
3.501272057481	12.437082442362	0
3.3297831413816	12.805427976196	0
3.6823393063421	12.851671876304	0
1.3671388209093	10.633374397873	-0.4152980605108
0.95248763025238	9.835503527633	-1.7808732395437
2.3518021577517	10.495200039554	-0.50930668321109
1.5373497846005	10.021005779616	-0.41781002197689
6.2054585007625	14.3	-1.3884356875417
6.9442913034148	14.3	-0.89278753613404
1	8	-0.2857142857143
0.54167473049383	7.7707286368021	-0.37916050195481
0.44975345341211	8.3808810318019	-0.31136669048163
1.022076618805	8.4121844676845	-0.45670843222423
0.89173681858685	4.6122796653579	0
1	5	-0.2857142857143
1.2386083631299	4.6841794176855	0
1.3923592539172	4.7130963353432	-0.25978315417498
6.4242299347383	5.6840176993625	-0.35514079575845
6	5	-0.2857142857143
6.3424541740313	5.2754910113697	0
6.0447933133998	5.5049876953384	0
5	2	0
5	2	-0.2857142857143
5.5190673049038	1.9208326821789	0
5.2306444928855	1.6547875838902	0
5	13	-0.2857142857143
5.257359886178	13.540476325965	-0.63012071696907
0	6	0
0	6	-0.2857142857143
0.066757795936057	6.5008369551487	0
0.29243888553297	6.1743316976873	0
7	9	-0.2857142857143
6.5033796411008	8.9981073418213	0
6.5607922823332	8.4440251373986	-0.63122800754088
6.811726958696	8.7028726276344	0
7	5	0
7	5	-0.2857142857143
6.4986646723997	4.9192017057136	0
6.7141996182955	5.3303468264748	0
7.7	9.5988491781319	-7.4736716195817
3.1507199964473	10.394874003632	-10
4.8663216648816	7.3792654266676	-10
5.1015502438684	11.553440122249	-6.405163284031
7	7	0
6.9589015254993	7.4884372736447	0
6.761634669635	7.2408783569561	0
6.0574437090791	0.20878539066113	-1.8779478182653
4.9838025543493	-1.3	-2.1179854334408
6.0308685444023	-1.3	-3.5425074203685
6.440522236286	-1.3	-2.0103523001383
3	2	0
3	2	-0.2857142857143
3.0105846506	1.4855923993349	0
2.6480485575569	1.6700894103009	0
5.0527203000088	13.535479310798	-1.5373151531841
5.0246691847863	14.3	-1.036131499603
4.1300067609037	14.3	-1.2024507502556
4.4744197407865	13.547407617085	-0.63586628370479
2.5813517996865	9.6286485974984	-1.0236151505326
2.2955236368793	9.5881134365907	-0.29154811067367
3	10	-0.2857142857143
6.4248505083522	12.522044346884	-0.42559946143008
6.465073985677	12.51782996062	0
6.1644652963082	12.36965297069	0
6.3832046574853	12.135664356038	0
2.9908655166747	12.498069465114	0
1.984703560175	7.5906357794687	-0.50777967523709
1.0508409188237	7.354634772545	-0.95680796450018
1.4515039911109	6.5829264157992	-0.56173008002516
1.3866216751759	7.5118935788728	-0.35488362790971
2.45	14.3	0
2.2168273415577	13.627179222019	0
2.4554693735383	13.497784276817	-0.39727655195048
3.032551925238	13.762466584345	0
6	11	-0.2857142857143
6	11	0
6.4843452951013	10.966514281357	0
6.2440599782187	11.234710090977	0
5.5	-0.5576923076923	0
5.247952850371	-0.29481663567353	0
5.5452342683804	-0.096294524539033	-0.49623355575102
5.1016398375367	-0.61489919294387	-0.38960315167385
2.3232496140345	4.0110297188843	-1.3835068702753
1.6586320571652	5.8268322896535	-1.5213554090482
0.71002746520551	3.976198472286	-1.505315421377
1.3296414347056	4.9089994064226	-0.82629172929831
5.6	14.3	0
4.6510156691765	14.3	-0.56274723813486
-0.090060726359069	5.5363033123106	-0.44581840212762
0	5	-0.2857142857143
-0.38456492153953	5.1805342841446	0
-0.7	5.0205501441189	-0.32507149572551
3	13	-0.2857142857143
5.1848675157348	3.2965660830064	0
5.4046165570399	2.9501485228537	-0.43988698776777
5.486289771732	3.4981838484395	0
5.4682750147717	3.0660382780841	0
0	8	0
0	8	-0.2857142857143
0.5178658825659	8.020802151125	0
0.25864598874121	7.6639427314904	0
6.7098208972434	7.2950601162224	-1.3269022195366
7.7	7.949747446039	-0.91833665053736
7.1577047253729	7.4844276204668	-0.64272934527953
4.5892004575887	3.5369189576522	-0.55981654583505
4.4420188491858	3.4660037233365	0
4.711527897636	3.7375259681419	0
4.3494632088922	3.8023533541114	0
4	6	-0.2857142857143
4	6	0
3.9913416390327	5.4988534517732	0
4.5093195747582	5.724109532591	0
1.4	14.3	0
1.5	13.55769230769	0
0.89284349994875	13.714781914708	0
1.2292962491126	13.670420041977	-0.37788942865261
4	9	-0.2857142857143
4	9	0
4.5502440226935	9.051086551406	0
4.2963154051231	9.3907765114078	0
4.5321110402369	7.5028925212181	-0.60552533206341
3.5085861108931	7.3893844432383	-0.64873189634878
4.0050480592533	7.4977657988521	0
4	8	-0.2857142857143
5.8961095330637	-1.3	-1.0125722125019
4.8982045728458	-1.3	-0.82217786726149
5.2296982103621	-0.31621891710017	-1.0679345669244
4.9010483556055	1.478997710586	0
4.5631533182214	1.9074133665015	-0.41231302454656
5.0320642355688	1.4518180616801	-0.36509190625555
3.5357179442866	0.46434418042464	-0.60031716899974
3.9407498163335	-0.4411178910574	-1.1087857494349
3.2826824657074	-0.47747544834602	-0.50866572047373
2.802260468126	-0.22902113419037	-1.4542342115515
1	13	0
1	13	-0.2857142857143
1.1191337005982	13.329221525091	0
1.4884720276527	13.02962190928	0
-0.21681247778723	8.5792000107362	0
-0.35118339610893	9.0917088673227	0
-0.7	9.0968147603684	-0.35256881313688
-0.7	8.9375	0
0.51662331659314	-0.40156299802931	-0.67799391089861
0.13474046208011	-1.3	-0.85683826964205
-0.16941603187845	-0.57512411281067	-1.4019543009948
6	13	-0.2857142857143
6	13	0
5.8068477026831	12.499749736815	0
6.1890713266052	12.67695534294	0
2.5984255358496	5.4578875982232	-0.67264342113488
2.2172109403706	5.4325217687574	0
2.4824672258873	4.9705265694472	0
2.6598112065826	5.3330483814808	0
-0.7	0.5146532048839	-0.51418317722913
-0.7	1.0492756199945	-0.88024243711367
-0.37698118088761	0.89350663208132	-0.33360419980628
-0.25096134668857	0.95145340086689	-0.90448711690516
6	2	-0.2857142857143
5.4002158317804	1.7678073061348	-0.50898482673054
5.8183999242367	2.5164331321023	-1.0840550371572
-0.13917028340788	5.5182991349521	0
0.31578338747353	5.7567158690792	0
6	12	0
6	12	-0.2857142857143
5.513035862904	11.994753403328	0
1.5285536174902	4.2362319729344	-0.43851980589517
0.57100063419133	12.499134596467	-0.56842257570583
1.2565986295401	13.42724014175	-1.149557674079
1.4486633887383	12.69302170761	-0.31714242590465
6.65	-1.3	0
6.903739311401	-1.3	-1.0953527719967
6.3980205255852	-0.38130956989248	-0.5855507841991
7.2175457166608	-0.5710098692386	-0.51938212652516
3	7	-0.2857142857143
3.5055774955602	6.7395375676091	-1.4094768265058
2.383927159844	7.4535505157878	-1.0620490471275
1	4	-0.2857142857143
1	4	0
1.2222221827385	4.2954008280594	0
0.82345085295407	4.2815033897546	0
5.6	-1.3	0
5.790373644402	-0.65252487431205	-0.38521635467031
[...]
CELL_DATA 5483
SCALARS Coverage double 1
LOOKUP_TABLE default
1.5033157695055 0.73732133305854 1.3934161609806 1.5602792692934 1.4366597563705 0.8622875490128 1.1336266816009 0.65018350835472 1.0995038888528 0.19969369661259 1.832474982876 1.6482112919016 1.4855083077485 0.7107225332067 1.2439433190074 1.7780173981533 0.97117418046493 1.1308069587495 0.59336135512028 1.6414698665768 1.4319582122437 1.6964833801944 1.8828023210032 1.0546830754037 1.5792168442994 1.3893739227457 1.2398697522725 0.57138571972183 1.2990520325312 1.6420726137167 1.5462685849591 1.7699636542591 1.2023444382106 1.7797493560944 1.4687782796721 1.7619390502148 -0.38930236271582 1.787741038628 0.23959559198191 1.7696592680054 0.61047929576427 1.3703100800824 1.3798014129519 1.4609747883008 1.2679130129472 0.88544550402092 1.8175645550755 1.0291401215905 0.92827187642542 0.55949555091372 0.67750207703101 1.2643093464212 1.3781121033439 1.5131228211644 1.3376159614686 0.94341285094411 1.4363307881692 1.8342397186968 0.85295715266682 1.8300585096329 1.5089724437491 0.60233748529403 1.4166650185143 1.5220558977355 0.70112272079824 1.58177357183 1.1300025472427 0.62013055980346 1.70045987865 1.5541753109294 0.81672605576617 1.0772492729542 1.7652402593719 1.6862563106822 1.5284390151366 1.0299499088707 0.61685526783691 1.2503512073577 1.9281470765638 0.62719725326392 1.1543214240641 0.79143491016455 1.4979645398811 1.2147141692037 1.5000539394466 0.98086307269852 0.59813720976361 1.8582473213107 1.7579828632606 1.5524780009738 1.1567441893344 1.1967757289418 1.259182135922 1.2139868040261 1.4589840022303 1.61193162618 1.5867952636763 0.97025384875455 1.6321172028662 1.6586816009485 1.293550397934 1.802122982932 0.9415076875257 1.5927164843466 1.0741788324804 1.5285638442675 0.30511393993695 1.1132426030154 1.7827172901966 1.8710491475284 1.5623597751842 1.2857855928328 1.4638346690864 1.4013929336381 1.1560632835975 0.73433542904906 0.93483391425946 1.0161257818559 1.5616732065146 1.1945195534268 0.95434880368161 1.6052312942294 1.2375450246341 0.41807922488434 1.2264307229737 1.775877116383 1.0476835999865 1.8015979911853 1.3265929507156 1.5199175430791 1.495589989241 -0.22788833589705 1.0573391494666 1.3935786918318 0.80554285097745 1.5827158696288 -0.42235635351722 1.3425715352105 1.3277657592785 1.8628582414781 0.5471042388506 0.15066661391382 1.7742962141285 1.6826167782572 1.4991861212002 1.4138933616944 0.85195555427519 0.65407277015145 0.89695184273301 0.58182824871517 0.36510257906445 1.8503704609967 0.80718192334394 1.1954292616759 1.3816800905952 1.6375016157304 1.4463973117037 1.0498940106959 1.7335506931277 0.77659017889353 1.432604628245 0.7149825908203 0.91729404671063 1.5744365587232 1.8636075371708 1.6353043455721 0.58602605003129 1.7966734568628 1.4244160938634 1.8014691276134 1.5847948483063 1.1663124229626 1.2499677053058 1.8242509424863 -0.096502066174758 1.8593298286518 1.9046092567016 1.7615409625082 1.6876368977996 0.16308989284567 1.5475989633859 0.38815182306039 1.1159495583391 -0.096708915511256 1.2211812726467 1.8501958960255 1.4007604701413 1.5593498195778 1.8215723985897 1.3292703289426 1.8463657233152 1.3172332997387 0.72958149779752 1.5920877555902 1.2565095611433 1.0683260234372 1.6415709530714 1.5321464937335 1.4008933864961 1.8637719502031 0.51358336132583 1.8975196395572 1.41282238788 1.4935160697188 1.9131665868782 1.6566189380841 1.7126119809341 1.4620249726918 1.0689479879363 -0.45081035626856 1.3796043688552 1.070740805112 1.1736079253535 1.887290087477 1.8530579176742 1.8631413923485 1.8472668836894 1.6018072891459 0.85339218835187 0.84638071156047 1.3687293150786 1.7225298203304 0.54365090186884 1.8695679120852 0.71616214948498 1.685809682219 1.5297915907019 0.85147247564735 1.9239624370685 1.1511430246799 0.9133658592486 0.87490206487012 -0.15262783287065 1.8579550211874 1.434901195155 1.1591313911803 0.54786684664011 1.7457276829351 1.5671160074591 1.5345006168587 1.7672043876398 0.69518789954299 1.5859013142737 0.95628568250665 1.5716472562917 1.8458848834404 1.3229297395247 1.5306574527528 0.51755840391577 1.6074632814894 0.68208292769191 1.6771926197147 0.45038642333094 0.20567568452808 0.014182693493372 0.44254212164173 0.87178467026685 1.8628725263617 1.3069561145364 1.8747410335269 1.0314620327899 1.0457317192681 1.4178607382975 1.3450711556116 1.7568254137339 1.8334358141381 1.4483013826968 1.8633233981555 1.535125319504 0.71846761448272 1.8576539806409 1.893706712624 1.5585007268697 1.4194046872627 1.8423425408365 1.5517368892154 1.8510343438544 1.5820973693445 1.5675920481551 1.7261228513333 1.6348694286323 1.9295440989128 1.4270247688886 0.52549459364161 0.49732422619681 1.2659391102209 0.9570569876973 1.5858095990856 1.7474908747126 1.3020446823039 1.5350077413529 1.8464395368501 1.7251684364828 0.56190320875462 1.414509107971 1.6915249528287 0.71672902601301 0.25412925755311 0.83582566773865 0.49633399146948 0.44288786339458 1.5622412327813 1.3964174968813 0.99040954004596 0.8099101294347 1.0987866951267 1.6116866515524 1.3025861869896 1.5317947685225 1.1124955877034 0.73016107456345 1.58015120659 1.2566252905695 1.2520405584643 0.63511336334498 1.1530507361248 1.5188679954069 1.0729910620535 1.4380095221367 1.1463870944353 1.8148488452998 1.4969215306682 1.5253887392982 1.4092695956697 1.909315246236 1.2579117764105 1.696528488144 1.5461445976058 0.45776622115928 -0.63841604913742 1.6235303850298 1.1968844728067 0.71984461004939 1.5258277028909 1.4511900498776 1.8027425938447 1.8759621193095 0.94197878258304 -0.58196096077604 0.84291345492427 1.4126944890697 1.2132493439604 -0.25671975100711 1.0340997254343 1.0495764579238 1.4209658936774 0.86203278790391 1.5457467032298 1.3623143026761 1.2359348675159 1.5262835518778 1.7197317396704 1.7853770850105 0.59994491336064 1.8787776264735 0.9950455547173 0.099339174077985 1.305270280815 1.7023543704043 0.47855451210781 1.3085303783832 1.3656943378144 0.70430459792184 1.3771913438736 1.7433794220064 1.4681761248235 0.87073602370928 1.7688821330588 1.6751898989052 1.2023325707494 1.3147819980747 0.96635337014861 1.4663632667997 0.26105842614264 0.57028333869846 1.1397595503062 1.2946975315526 1.5220681445879 0.75912821487928 0.32142117885275 1.8266633435484 1.8878073242213 1.9067663771961 1.5936628820043 1.3406449865015 1.8563111301269 1.806928679012 0.57318722695514 0.83113901425104 1.5206899976475 0.99189838061504 -0.23417967291666 1.5897859161975 1.4008019863753 1.3676021988716 1.5840645008403 1.6018245268583 1.4663719349278 1.3864508428248 1.54113815394 1.0418206874247 0.82905228234785 0.82027717882209 1.7569643740558 1.9215188338533 1.234047941723 1.3422185629925 1.7174074812979 1.8478944509159 1.2760076295657 1.4319833850256 1.5076282984906 0.64728246468714 1.8212298602782 1.4066028481822 1.4408440227595 0.91852910284516 1.5580447729887 1.8419833840762 -0.40286110466772 1.5493264122308 1.5183550913637 0.52444749304833 1.3850254163071 1.3517006967393 1.0367354968482 0.19279740158292 0.11719809378873 1.5823580979895 0.29926272914734 1.6851723335072 1.2597488220852 1.8172309818287 0.87388091358188 1.7478303484411 1.4018011768932 1.7339315175251 1.7997422691 1.4043978377894 1.1961743213195 1.4268866469052 1.5677564686397 1.2671894791003 1.730231173742 1.8272015198461 1.5597166906077 1.1329423824073 1.2731904070376 1.1988694811031 1.2361728857637 0.89778136752312 0.68723822997835 1.4502379468365 1.5196104703689 1.6107763364456 1.4561939992505 1.8811516362455 1.3678167617162 1.6872402244488 1.4911358000773 1.8843309390892 1.2315166145846 0.98885722341834 1.5914711052026 1.9085501290763 1.4884938645492 0.86366225703788 1.3402387259702 -0.24922880784365 1.8436873225248 0.45317060547402 1.8014382425026 1.4759445994934 0.21984362208575 1.5538010565661 1.3045688538685 1.0649144598895 1.4942187695074 1.7208365695431 1.8410803148586 1.4302689165703 1.4387742110816 1.8035449019211 1.6362102650134 1.3646307952187 0.6996082496541 1.5865971026359 1.545082501873 1.5224829296727 0.65034981541812 0.42494708017508 1.4271486009668 1.2250659481511 1.4978986706162 0.82730868376237 1.8525459413976 1.4450682616595 0.8114391328018 1.9234209025735 1.4227185605954 1.0433082710179 0.62032910340558 0.82106174941446 0.98510431900494 0.51329989981185 1.6984503652035 1.5912903917786 -0.02472395902406 1.3145354667852 1.1570556495368 1.446001173389 1.3493282837389 1.5291275217165 1.506143701425 1.7981498655755 1.0299805771217 1.5818000714739 0.74075993906283 1.0702441812666 1.382394633073 1.5822942722583 1.0928688954481 1.7750133754907 1.6104331081097 1.3026503293813 1.5844291551757 1.4258877007873 1.6679154494084 1.5629943418158 1.6009225897357 1.5618981200725 0.40123555173853 1.3055360702309 1.4278413470604 1.8135600310749 0.7622858176211 1.7903302361929 0.75100067476537 0.88438227310472 1.3293134654532 1.7876558235197 0.85947483328443 -0.7096074014592 1.2586823682468 1.5307380863582 1.2635494528618 1.6929012566971 1.4640017987268 0.64987471125626 0.8142183264288 1.8240968465937 0.92045434016565 1.5865781996515 0.82903083641436 0.58503613830027 1.3485664474203 0.55624230985319 1.5532287758299 1.5847522669182 1.5291990150049 0.014676801022655 1.1061530773784 1.694434433172 1.1908340441766 1.5231047914502 1.4238907894805 1.3827267867821 1.4368530273205 1.0533490288882 1.5881259345829 1.5392425504864 1.013704202694 1.0803148249859 0.229348886661 1.8806221822819 0.91345182168979 0.3185740946696 1.7418294680649 1.3246736671834 1.6160647828697 1.6909148802253 1.6759911531112 0.6360190015365 0.8446616385446 1.591601972593 1.3835152993832 1.6577671157962 1.1340707803126 1.4744191886255 0.74773869801545 1.0507686606824 0.82223864807326 1.507970168119 1.2335592352579 0.66876341171685 1.8595462335442 1.6442463084127 -0.56978437563531 0.11615908998534 0.88602775028567 1.6181123912768 1.5585411733471 1.5385853594225 1.8370766297237 1.0866754453204 1.4291919808787 0.59772639547117 1.6812512472077 0.35805461967589 1.6767154427931 1.0978063366834 1.5770953542151 0.89307443827629 1.5886039895744 1.5005013417411 1.3519225874952 1.4299478922601 0.34324149902996 1.8637498079188 1.1379413214102 1.4952228943685 0.43628388436589 1.4483591389578 1.5624264569579 0.94338445481632 1.338754876229 0.86381324738229 1.6934172938205 1.0741905903163 1.4723253905884 1.3774255805513 1.263621818153 1.8638575295868 0.66555622415223 0.39194320891753 -0.55837585827511 1.7756809638171 1.1147441891572 1.047478862495 0.74751230849249 1.8078971733156 -0.21693496947678 1.6208954280386 1.5648837558159 1.0866077496309 1.028880455063 1.7751201275588 1.8630221889306 1.470537035466 1.5195677719968 1.7895930651361 1.6855822413257 1.843117148007 0.72310021004464 1.3420620622715 1.849525041026 2.0427106816795 0.67403964048412 1.4309922144387 1.3571434812849 1.4586513408529 1.566414275289 1.5915549569593 0.60442388987087 1.7373910177354 0.67253021476612 1.124979947919 1.4754770799972 1.9169236349807 1.1115396708936 1.4122260578705 0.09070551295648 1.6778410767505 1.6492523741527 1.1265131538174 0.26098491374068 1.395242519132 0.70128898423772 1.6649038391942 1.159954665985 1.5156263851878 -0.37627845650443 1.4263930865424 0.65112553425719 0.7572266906498 1.861716571814 1.2721082061401 1.3003368655283 1.5384332570231 0.44278408839961 1.8762336424692 1.8550259805226 1.5135475271158 1.8279649033276 0.648055802132 1.3579760033043 1.2899566881123 1.5173790276498 1.0202226975913 1.7938173706722 0.49218693775156 1.261754627149 1.3815347770224 1.1748833807106 0.79116510624335 1.773029462229 1.5504034462384 1.333174877541 1.352719824626 0.6970361296281 1.3814617505266 -0.43732074917948 1.5801847954983 1.0004796140333 -0.31006327806929 0.24301879731024 1.5380557786974 1.6750687720513 1.1010675848062 1.3728716975619 1.8516891698528 1.5249583735264 1.0686140692463 1.6165770900161 0.91536235795168 1.1643239293382 1.4402698103611 0.96363827721587 0.32699463778376 1.2700157794813 1.4494180370315 1.8635016283071 0.74474531208894 1.6491271755373 1.5297077790185 1.4428769878732 1.5657844665312 1.5841013821171 0.18429888667239 0.97539053412438 1.3167875949728 1.0218103167011 1.2278551684826 1.1203055884914 1.7701509296266 1.0433306130841 1.2391265001174 1.4530135994707 1.7754320657091 1.7343737640799 1.7363589046044 0.62589896798452 1.8658834691572 1.4638611698323 0.74216291289083 1.1846378551311 1.488833124825 1.4426903800893 1.0979069975177 0.82807413061557 1.4420505250659 1.5325197709098 1.9179222136933 1.4235185598784 1.2964374195744 0.77104219725858 1.4001999347195 1.5514310483925 1.5798924475715 1.8190395368373 1.4015683334866 1.4936432113461 1.0794370212809 1.5414504435482 1.5890017427255 0.81771976334593 1.8871502047861 1.39065010211 0.55120520173298 1.5982693443403 0.87204257914398 1.51434569376 1.2072763701792 1.7205944982612 1.1963518300938 1.19998009869 1.5666879810547 1.1360796616889 1.6403672823376 1.8538872644348 1.3137141404199 1.6316680141802 1.4478075116469 0.46869353141437 0.98447677568049 1.7789909249679 1.7083187090567 0.092041868514362 1.5898121776822 -0.5732930522619 1.3869034332306 1.7230541127302 1.2926929507956 0.60353952779054 1.7729735075807 -0.72448990762477 1.721159318485 1.3214324028927 1.4307159704842 0.72002271742632 1.1651331363373 1.3802931836619 1.0308433341257 1.4513672201527 1.0649446107629 1.5735066369073 0.76110227131873 1.4095286827067 1.5067430238866 1.2066906725694 1.3237228839306 1.574921252409 1.5525251743132 1.4571096922442 1.0763763566716 0.60944088624631 0.74382694727794 0.60580509315699 1.5292395739366 1.5666719231574 1.5803149193092 1.0607985378669 1.6738644294564 1.4935245453174 1.088689213227 1.5842349968543 1.4421164374731 1.5861701799821 0.5008975480012 0.96193625855319 1.5977478499108 1.266264515361 0.88651842413904 1.2863629463839 1.3425525938368 1.0483317362377 1.2748831404443 1.5285434143565 1.4987889437209 1.1939975943452 1.8620868454258 1.8236252427784 1.0738621148792 1.29015550624 0.71043160650384 1.3334067451039 0.65822604870938 1.6385729447336 -0.22142464113359 0.65538140679029 1.5360244528516 -0.29344507152345 1.6508814339896 0.6851252478505 1.2803466571175 1.305202494639 1.4179894332079 0.81056477084464 1.3996676469009 0.44451315013178 1.244746764812 1.5721482730097 1.268534835191 1.5365461540917 1.4874786275422 0.93858267857957 0.7854814236353 0.38392161371678 0.77279978459952 0.50300477040016 1.8246141007766 0.43724955863249 0.91819445895451 1.5187456523797 1.2840546786374 1.5273918757358 1.6545799458804 1.4696594608423 1.5745803672001 1.2276660295105 1.3786295458363 1.5165961416749 1.5365397706396 1.6931441946231 0.54257325130839 1.5649257104354 1.555566257743 1.1600241619476 1.1372767516755 1.6436182873686 1.8928979836266 1.5987886339174 1.716398152747 0.65127370363927 1.2354787070157 1.8142463146559 1.4844311415653 1.2815822196618 1.6614465986698 1.0036133419266 1.3685690739963 0.39499187641119 1.7420497336441 1.2419117666876 0.6696375258716 1.4604132610707 1.5076688270569 1.4095188718658 -0.17850200499198 1.2794078863546 1.577289436961 1.8599687714112 0.31767932396883 1.765877586727 0.79960133821166 0.20227179355724 1.1632698365964 -0.49326190941325 1.6929380911534 1.9004829254083 1.4140040302611 0.99458797641285 1.5033781753074 1.7039764045605 0.37685018353091 1.5833226972336 1.4824403457459 0.20673750616309 1.4312113440953 1.342397812569 1.6362450443818 0.94602844498975 0.51439927870317 1.4250195464817 0.59884398664374 1.2572592435687 1.8614923729712 1.3568613232783 1.4977041772658 1.2880278729123 1.5988725867977 0.33692392717998 0.37584815115649 0.96711849248346 2.0012864771168 1.1082396240372 0.60640234375417 1.5335465281828 1.5697738701126 1.0447926699473 1.3597799014066 1.2318858388252 1.3187469203688 1.5604477768124 1.48044234259 0.7350677139837 1.2914362922626 1.3342605836935 1.5958782007137 1.8715100495885 0.58990572264414 0.84310074276997 0.46255804731474 1.5098217727698 1.3188902812303 0.77790099825044 0.9801016368892 1.7903319807645 0.48091706512659 1.1842567346075 1.0515776101042 1.2823774090543 1.7298479809559 1.2374507596254 1.1443933816547 1.7907872708347 1.8819802641402 1.5137959573592 1.7304679644267 1.5877298891363 1.222287038911 0.78070279256718 0.73755106669359 1.4884043727035 1.0569251750537 1.1774891982012 1.4799518833572 0.73642827049051 1.6244008604813 -0.1567038663034 1.8072076348509 1.6003176950747 1.3577072238978 0.51404800856384 0.56554573938282 1.7422482998071 -0.042420855268103 1.140928421528 1.2447238641469 0.59212323781255 1.1411113119193 1.8223350171257 1.8168573036419 1.4788957430769 0.66635298023756 1.7033394899766 1.7494706527056 0.30295891264808 0.8980262670743 1.6292060736544 1.0032554295264 1.5521438814351 1.5373883682323 0.91539757215358 1.3730001482267 1.2128605033606 0.71579792394114 0.63364011200503 0.60325205279131 1.77853320753 1.8326920479619 2.4827594415686 1.5493541685116 0.87095545159692 1.3250123162418 1.4856781086034 0.91672910816293 1.4896186695 1.7067367324787 0.49611151458243 1.7406058383461 0.84908117628437 1.7327931915487 1.5125555702843 0.73970968431647 1.0823842973455 1.5013195943587 1.399011401991 1.2356129711711 0.87979116414373 1.6316758850718 1.8052301025971 0.8447600579384 1.6790184688266 1.7341177206164 0.42855826965564 1.9785121960138 1.410295182517 1.1754346763838 1.0299056050487 1.1018064771011 1.55689590307 1.4725636355431 1.7018043100072 0.8721875940104 1.7896621717287 1.2651845004241 1.4084803367031 1.3266388349878 1.0303130122515 0.64262013536557 1.8856095180181 1.8089931894904 1.4324311465754 1.9076579589076 1.0474622097825 1.0264027284545 1.4990627516976 1.4884509042036 1.3445734627674 1.3509376304152 1.4928418421552 1.044405482932 1.7864408284587 1.8542057729449 1.4047839417417 1.0261107174312 0.78762889806568 1.4201495631011 1.2597172211857 0.30058259174414 1.5618097274131 1.7143749203084 1.2792891637311 1.863266718616 1.3490749258153 1.0519358734992 1.8678021490935 1.4870583780085 0.56701169845112 0.71730612463156 1.2872668257422 1.8428889785244 1.1751528956996 1.0029803497317 1.4484223657863 1.308036712773 1.7183472355345 1.5524713444527 1.2106843727764 1.3029604438308 1.7164328005814 0.86831009900946 1.5990157762408 1.6108877071954 1.8764000475677 1.4607933053318 1.2717856542458 1.7594155714908 1.7382552526992 1.8107763144448 1.5173601562055 1.4567243858995 1.4650410220417 1.5944468597225 1.4558440861515 0.92031713286481 0.029970480218955 0.87276763407307 0.7699650034502 0.7500651366042 1.5818467882295 1.2240611571618 1.7683092724558 1.2315792280928 1.5170729009864 1.2556656407447 0.58970052124425 1.7688901544799 1.54142968153 1.637918490978 -0.39891986652404 1.8479880682274 1.6032195918254 1.0219434572493 1.8133750558183 1.1817518265045 0.90461589197123 1.5650886284819 1.2873242764277 0.58630701573475 1.4562003756514 1.1906064537138 1.0841061428396 1.7658400916511 0.93392020910664 1.5809789548268 1.3076499155456 1.3270975346486 0.97403385446855 1.7792662815795 0.19354722663337 0.6772707223909 -0.52377965357101 1.3701756114954 1.4111057891993 0.78149066300735 1.0110193607015 1.5841870324582 1.6574769752975 1.3874447414394 1.6134497023245 0.87801021270192 0.85033476207732 1.8148818750707 1.7465176911538 1.4867656019316 1.5657260910872 1.4455019027046 1.4073839159314 0.5852977835592 1.3715101525237 1.6658831583893 -0.16379911784279 1.2504126292425 1.8683287258186 1.4339137210558 1.3959298888777 1.247638544951 0.86016923585455 0.43006991839693 1.5427038671199 0.72346351461797 1.3763615489067 1.3753724009116 1.5268414666241 1.5890428035983 1.7863153917767 1.824240504934 0.29739308981304 1.4546214451986 1.0944796723783 0.41869859492246 1.8084153986595 -0.51169260729511 0.54414670896466 1.2544745615406 1.7327139908595 0.85991601569435 1.4821379571852 0.53812549371389 1.4272684341886 1.014336044006 1.2733753525424 0.95893808901109 1.0226802984038 1.8724981788114 1.429660758074 0.72530735839567 -0.11612437982675 1.038075651861 1.3037408684436 1.5330653866356 1.511630580298 0.94293309076586 1.8350063318946 1.3190461164769 1.4960720248726 1.4514048426691 0.71216532567148 1.5457492601794 1.5004251327731 1.914