# vtk DataFile Version 3.0
d-2__ created by libgimli-v1.5.0-1-g5991b6ac
ASCII
DATASET UNSTRUCTURED_GRID
POINTS 257 double
25.5	-0.25	0
25.643267391024	-0.375	0
25.690940791558	-0.19094079155751	0
28.625	-0.27380702240065	0
28.625	-0.13804348840204	0
28.518663902413	-0.18940103023301	0
28.458333333333	-0.087886572211468	0
28.416666666667	0	0
28.375	-0.13804348840204	0
28.291666666667	-0.087886572211468	0
28.333333333333	0	0
28.25	0	0
26.083333333333	0	0
26.041666666667	-0.13804348840203	0
26.125	-0.087886572211466	0
26.166666666667	0	0
26	0	0
26.708333333333	-0.13804348840203	0
26.666666666667	0	0
26.625	-0.087886572211466	0
26.208333333333	-0.07357428207177	0
26.75	0	0
26.791666666667	-0.087886572211464	0
26.333333333333	0	0
26.25	0	0
26.291666666667	-0.087886572211468	0
27.166666666667	0	0
27.208333333333	-0.07357428207177	0
27.25	0	0
26.416666666667	0	0
26.375	-0.13804348840204	0
26.458333333333	-0.087886572211468	0
27.291666666667	-0.087886572211468	0
27.333333333333	0	0
27.625	-0.13804348840204	0
27.518663902413	-0.18940103023301	0
27.625	-0.27380702240065	0
26.583333333333	0	0
28.916666666667	0	0
28.833333333333	0	0
28.875	-0.13804348840204	0
26.833333333333	0	0
26.875	-0.07357428207177	0
29.98747163413	-0.5056358037932	0
30.050519698408	-0.25547676721966	0
29.843533331918	-0.29816134131379	0
29.458333333333	-0.087886572211464	0
29.404607252882	-0.15094638411797	0
29.541666666667	-0.13804348840203	0
26.5	0	0
27.791666666667	-0.087886572211468	0
27.833333333333	0	0
27.75	0	0
27.231336097587	-0.18940103023302	0
27.125	-0.13804348840204	0
25.705488373266	-0.59091608366499	0
26.007921013115	-0.8717186506847	0
25.91135296792	-0.47048281487414	0
30.166666666667	0	0
30.208333333333	-0.087886572211464	0
30.25	0	0
27	0	0
26.916666666667	0	0
26.958333333333	-0.13804348840203	0
30.791666666667	-0.087886572211468	0
30.833333333333	0	0
30.75	0	0
27.041666666667	-0.087886572211464	0
27.083333333333	0	0
30.083333333333	0	0
30.125	-0.07357428207177	0
28.541666666667	-0.073574282071767	0
27.375	-0.13804348840204	0
27.416666666667	0	0
27.5	0	0
27.458333333333	-0.087886572211468	0
28.583333333333	0	0
28.666666666667	0	0
28.226291378505	-0.21877391554365	0
28.432011579996	-0.40775209656411	0
30.148002764253	-0.18940103023303	0
30.208717134119	-0.38392172835888	0
30.291666666667	-0.13804348840203	0
28.208333333333	-0.07357428207177	0
28.166666666667	0	0
28.125	-0.072182208352023	0
27.875	-0.13804348840204	0
26.237940586216	-0.15094638411797	0
27.916666666667	0	0
27.708333333333	-0.07357428207177	0
28.083333333333	0	0
28	0	0
28.041666666667	-0.13804348840203	0
26.190375288162	-0.21877391554366	0
27.958333333333	-0.087886572211464	0
26.541666666667	-0.073574282071767	0
26.571273919549	-0.15094638411796	0
26.317063962986	-0.25702488420529	0
27.541666666667	-0.073574282071767	0
28.5	0	0
29.583333333333	0	0
29.625	-0.087886572211466	0
28.791666666667	-0.087886572211468	0
26.203594889612	-0.40391444725954	0
27.583333333333	0	0
27.666666666667	0	0
28.75	0	0
28.958333333333	-0.087886572211464	0
29	0	0
29.041666666667	-0.13804348840203	0
28.708333333333	-0.07357428207177	0
29.083333333333	0	0
29.125	-0.087886572211466	0
29.166666666667	0	0
29.208333333333	-0.13804348840203	0
29.25	0	0
28.165334880767	-0.15260258505374	0
29.291666666667	-0.087886572211464	0
27.731336097587	-0.18940103023302	0
29.5	0	0
29.416666666667	0	0
29.333333333333	0	0
29.375	-0.07357428207177	0
29.666666666667	0	0
28.086941669094	-0.2859797646022	0
27.958333333333	-0.18219221742147	0
29.125	-0.18219221742148	0
29.228873378537	-0.27753669533404	0
29.708333333333	-0.07357428207177	0
29.041666666667	-0.23876614697008	0
28.958333333333	-0.18219221742147	0
29.833333333333	0	0
29.875	-0.13804348840204	0
29.916666666667	0	0
29.791666666667	-0.087886572211468	0
29.75	0	0
29.958333333333	-0.087886572211464	0
30	0	0
29.483730629652	-0.25702488420531	0
30.333333333333	0	0
30.375	-0.087886572211466	0
29.369620976373	-0.40603607246707	0
29.604159114629	-0.34842263547806	0
31.124752694808	-0.11296503030675	0
31	0	0
30.958333333333	-0.087886572211468	0
30.041666666667	-0.13804348840203	0
30.416666666667	0	0
30.458333333333	-0.07357428207177	0
30.875	-0.13804348840204	0
30.583333333333	0	0
30.541666666667	-0.13804348840203	0
30.625	-0.087886572211466	0
30.5	0	0
30.43533056908	-0.18940103023302	0
30.916666666667	0	0
30.385963434616	-0.36114994877356	0
30.708333333333	-0.07357428207177	0
30.666666666667	0	0
29.636111778917	-0.20065391017952	0
30.999752694808	-0.25100851870879	0
28.731336097587	-0.18940103023302	0
26.851997235747	-0.18940103023303	0
30.737940586216	-0.15094638411797	0
26.523708621495	-0.21877391554365	0
27.133853031742	-0.25547676721968	0
26.949480301592	-0.25547676721966	0
27.041666666667	-0.52911283384145	0
27.041666666667	-0.18219221742147	0
29.357041954828	-0.21877391554366	0
29.737940586216	-0.15094638411797	0
30.690375288162	-0.21877391554366	0
29.958333333333	-0.18219221742147	0
25.875	-0.11303967622539	0
25.75	0	0
26.650397296319	-0.25702488420526	0
27.292050467453	-0.38392172835888	0
27.414390113348	-0.63321254312708	0
27.469144028345	-0.36097200963104	0
27.848127708251	-0.28948918465343	0
28.848127708251	-0.28948918465343	0
28.726596951268	-0.4234584073117	0
29.731548923005	-0.26700761442393	0
30.817063962986	-0.25702488420529	0
26.031958747178	-0.33325463579056	0
26.523689393121	-0.44776195923934	0
29.184065504659	-0.43422319923747	0
29.545209981036	-0.61464357222601	0
30.552290248164	-0.29580321144285	0
31.25	0	0
26.800529041383	-0.37028063139366	0
29.130694908432	-0.28024272799092	0
28.907115884997	-0.43487734236883	0
31.5	-0.5	0
31.5	-0.25	0
31.356886217184	-0.375	0
31.308843572405	-0.19115642759521	0
31.5	0	0
27.681768476189	-0.55823447719905	0
29.041897355025	-0.3545575021244	0
28.950100433703	-0.28398118611486	0
29.746371622197	-0.43057135368151	0
29.045779100149	-0.5143168838031	0
27.615347366628	-0.83560735755964	0
27.971649595913	-0.56775148091581	0
28.235269600634	-0.41546210057925	0
28.346412380513	-0.73751448832674	0
28.007726950717	-0.98664640296265	0
26.322202955504	-0.72835150504623	0
29.798122080496	-0.68908130839227	0
30.703430397599	-0.40445925111313	0
30.914859484231	-0.44990795630246	0
29.247599241801	-0.70334449364573	0
31.053928463665	-0.58159990549132	0
31.221377875989	-0.67457110982012	0
31.225195424337	-0.49586438948828	0
30.530720924191	-0.4852517756918	0
30.323984230706	-0.57992151527177	0
25.84485407481	-1.2957460393421	0
25.743909551686	-0.8528010586154	0
30.746070739038	-0.72060716412098	0
29.604860290622	-0.8788438191921	0
29.043947453281	-1.1807973577914	0
29.54268225478	-1.3246684327942	0
29.849430697053	-0.99522786547226	0
30.043693421774	-0.75311160759413	0
28.849047319116	-0.69970565535729	0
31.000856094841	-0.87446921301307	0
31.5	-1	0
25.845623228308	-0.30002188546398	0
30.512369350266	-0.71824350459	0
30	-1.6666666666667	0
30.051778272566	-1.3024535658708	0
25.5	0	0
27.680522574649	-1.2514855461386	0
27.375	-1.6666666666667	0
27.75	-1.6666666666667	0
31.174325422113	-0.32450830281231	0
25.5	-0.5	0
26.747329141204	-0.71351083399284	0
25.5	-0.75	0
26.348572023727	-1.2023161679924	0
27.179597305363	-1.0673000334922	0
29.25	-1.6666666666667	0
25.5	-1	0
30.75	-1.6666666666667	0
31.013091550828	-1.3141602648437	0
30.625304590967	-1.106556793762	0
30.375	-1.6666666666667	0
30.189043391347	-0.96114657873573	0
28.064690440023	-1.391571216678	0
28.426745644615	-1.201505510398	0
25.5	-1.6666666666667	0
27	-1.6666666666667	0
26.25	-1.6666666666667	0
28.5	-1.6666666666667	0
31.5	-1.6666666666667	0
CELLS 429 1716
3	0	1	2	
3	3	4	5	
3	6	7	8	
3	9	10	11	
3	12	13	14	
3	14	15	12	
3	16	13	12	
3	17	18	19	
3	20	15	14	
3	7	10	8	
3	21	17	22	
3	23	24	25	
3	26	27	28	
3	29	30	31	
3	23	30	29	
3	28	32	33	
3	34	35	36	
3	19	18	37	
3	38	39	40	
3	22	41	21	
3	41	22	42	
3	43	44	45	
3	18	17	21	
3	46	47	48	
3	31	49	29	
3	50	51	52	
3	53	27	54	
3	55	56	57	
3	58	59	60	
3	61	62	63	
3	64	65	66	
3	67	68	61	
3	67	61	63	
3	69	70	58	
3	4	71	5	
3	72	73	33	
3	5	6	8	
3	74	73	75	
3	73	72	75	
3	76	4	77	
3	78	79	8	
3	80	81	82	
3	83	84	85	
3	50	86	51	
3	25	87	30	
3	86	88	51	
3	52	89	50	
3	90	91	92	
3	93	87	14	
3	94	92	91	
3	95	49	31	
3	9	8	10	
3	84	83	11	
3	19	95	96	
3	91	88	94	
3	25	30	23	
3	9	11	83	
3	97	30	87	
3	98	74	75	
3	99	71	76	
3	100	48	101	
3	33	32	72	
3	99	7	6	
3	41	42	62	
3	102	40	39	
3	71	99	6	
3	97	93	103	
3	104	34	105	
3	39	106	102	
3	74	98	104	
3	38	107	108	
3	107	109	108	
3	35	75	72	
3	106	110	102	
3	34	98	35	
3	28	27	32	
3	111	112	113	
3	109	111	108	
3	59	82	60	
3	113	114	115	
3	116	9	83	
3	114	117	115	
3	50	89	118	
3	119	120	46	
3	119	48	100	
3	110	106	77	
3	120	121	122	
3	89	52	105	
3	101	123	100	
3	124	92	125	
3	54	26	68	
3	114	126	127	
3	101	128	123	
3	129	109	130	
3	131	132	133	
3	134	131	135	
3	48	119	46	
3	115	117	121	
3	136	137	133	
3	47	138	48	
3	60	82	139	
3	82	140	139	
3	141	142	138	
3	143	144	145	
3	122	47	46	
3	146	137	136	
3	113	112	114	
3	134	132	131	
3	147	140	148	
3	149	65	64	
3	150	151	152	
3	150	153	151	
3	148	154	151	
3	147	148	153	
3	65	149	155	
3	59	58	70	
3	155	145	144	
3	82	81	156	
3	145	155	149	
3	146	69	137	
3	157	158	152	
3	154	140	82	
3	147	139	140	
3	101	48	159	
3	149	160	145	
3	102	110	161	
3	150	152	158	
3	42	22	162	
3	157	163	64	
3	5	71	6	
3	4	76	71	
3	85	84	90	
3	116	83	85	
3	96	31	164	
3	49	95	37	
3	15	20	24	
3	25	20	87	
3	14	13	93	
3	25	24	20	
3	165	166	167	
3	63	168	67	
3	54	68	67	
3	17	162	22	
3	63	62	42	
3	35	98	75	
3	34	104	98	
3	26	54	27	
3	63	42	162	
3	88	86	94	
3	125	94	86	
3	105	34	89	
3	118	89	34	
3	77	4	110	
3	161	110	4	
3	111	109	112	
3	126	112	109	
3	47	117	169	
3	120	122	46	
3	38	40	107	
3	130	107	40	
3	121	117	122	
3	117	114	169	
3	80	70	146	
3	123	128	135	
3	134	128	170	
3	159	48	138	
3	134	135	128	
3	163	152	171	
3	158	157	66	
3	154	148	140	
3	151	153	148	
3	69	146	70	
3	172	44	146	
3	9	78	8	
3	161	40	102	
3	90	92	85	
3	116	78	9	
3	92	94	125	
3	5	79	3	
3	164	31	30	
3	19	37	95	
3	173	16	174	
3	164	175	96	
3	17	19	96	
3	53	165	176	
3	53	32	27	
3	118	86	50	
3	175	17	96	
3	176	177	178	
3	118	36	179	
3	78	116	124	
3	180	3	181	
3	169	114	127	
3	114	112	126	
3	134	170	132	
3	133	132	136	
3	44	80	146	
3	146	136	172	
3	82	59	80	
3	152	151	171	
3	64	66	157	
3	80	59	70	
3	64	163	149	
3	170	101	159	
3	136	132	172	
3	85	92	116	
3	124	116	92	
3	97	164	30	
3	166	168	63	
3	14	87	20	
3	87	93	97	
3	117	47	122	
3	47	169	138	
3	101	170	128	
3	142	182	159	
3	132	45	172	
3	149	163	183	
3	31	96	95	
3	162	166	63	
3	184	93	13	
3	97	185	164	
3	156	154	82	
3	141	127	186	
3	142	141	187	
3	44	172	45	
3	152	163	157	
3	163	171	183	
3	103	93	184	
3	53	72	32	
3	154	188	151	
3	189	144	143	
3	185	175	164	
3	175	190	162	
3	118	179	86	
3	125	179	124	
3	109	107	130	
3	126	129	191	
3	161	180	40	
3	127	126	191	
3	169	141	138	
3	141	169	127	
3	125	86	179	
3	180	181	192	
3	193	194	195	
3	196	194	197	
3	149	183	160	
3	143	145	160	
3	167	176	165	
3	162	17	175	
3	198	178	177	
3	72	53	176	
3	118	34	36	
3	185	97	103	
3	126	109	129	
3	186	191	199	
3	180	130	40	
3	130	180	200	
3	161	4	3	
3	129	199	191	
3	138	142	159	
3	45	182	201	
3	130	200	129	
3	192	202	199	
3	202	186	199	
3	129	200	199	
3	142	187	201	
3	191	186	127	
3	180	192	200	
3	199	200	192	
3	180	161	3	
3	142	201	182	
3	54	67	168	
3	203	204	198	
3	79	5	8	
3	78	124	205	
3	182	170	159	
3	151	188	171	
3	185	190	175	
3	204	206	205	
3	201	43	45	
3	43	81	44	
3	207	206	204	
3	57	56	208	
3	44	81	80	
3	209	201	187	
3	35	72	178	
3	57	208	103	
3	13	16	173	
3	183	210	211	
3	141	212	187	
3	45	170	182	
3	213	214	215	
3	205	79	78	
3	216	156	217	
3	45	132	170	
3	196	197	189	
3	218	56	219	
3	178	198	36	
3	188	156	216	
3	220	211	210	
3	57	103	184	
3	204	179	198	
3	165	53	54	
3	221	222	223	
3	209	224	225	
3	43	217	81	
3	226	212	202	
3	214	227	228	
3	211	160	183	
3	210	171	188	
3	226	192	181	
3	193	215	214	
3	3	79	181	
3	205	206	79	
3	186	212	141	
3	212	186	202	
3	173	229	13	
3	167	177	176	
3	72	176	178	
3	206	226	181	
3	213	227	214	
3	217	230	216	
3	196	195	194	
3	231	232	223	
3	227	213	220	
3	206	181	79	
3	187	212	221	
3	173	174	2	
3	13	229	184	
3	174	233	2	
3	234	235	236	
3	196	189	143	
3	233	0	2	
3	160	237	143	
3	237	195	196	
3	1	0	238	
3	173	2	229	
3	177	203	198	
3	198	179	36	
3	239	190	185	
3	35	178	36	
3	192	226	202	
3	195	215	193	
3	188	216	210	
3	220	210	216	
3	213	237	211	
3	154	156	188	
3	124	179	204	
3	221	212	222	
3	240	219	55	
3	54	168	165	
3	196	143	237	
3	195	237	215	
3	55	1	238	
3	167	166	190	
3	2	1	229	
3	1	55	57	
3	190	166	162	
3	204	205	124	
3	241	208	56	
3	242	167	239	
3	223	222	243	
3	156	81	217	
3	160	211	237	
3	213	215	237	
3	183	171	210	
3	228	193	214	
3	219	244	218	
3	56	55	219	
3	184	229	57	
3	57	229	1	
3	220	213	211	
3	245	246	247	
3	230	220	216	
3	220	247	227	
3	248	247	232	
3	228	227	246	
3	55	238	240	
3	249	230	217	
3	247	249	232	
3	166	165	168	
3	221	209	187	
3	43	225	217	
3	209	43	201	
3	247	246	227	
3	190	239	167	
3	207	204	203	
3	208	185	103	
3	242	203	177	
3	207	250	251	
3	240	244	219	
3	252	218	244	
3	224	209	221	
3	217	225	249	
3	43	209	225	
3	241	242	239	
3	167	242	177	
3	253	242	241	
3	56	218	241	
3	212	226	222	
3	249	225	224	
3	234	250	207	
3	239	185	208	
3	231	223	243	
3	224	232	249	
3	252	254	218	
3	241	218	254	
3	253	241	254	
3	239	208	241	
3	206	207	251	
3	224	221	223	
3	223	232	224	
3	248	245	247	
3	234	207	203	
3	250	255	251	
3	251	226	206	
3	255	243	222	
3	249	247	230	
3	220	230	247	
3	203	242	234	
3	235	242	253	
3	255	222	251	
3	226	251	222	
3	232	231	248	
3	245	256	246	
3	228	246	256	
3	242	235	234	
3	234	236	250	
3	255	250	236	
CELL_TYPES 429
5 5 5 5 5 5 5 5 5 5 5 5 5 5 5 5 5 5 5 5 5 5 5 5 5 5 5 5 5 5 5 5 5 5 5 5 5 5 5 5 5 5 5 5 5 5 5 5 5 5 5 5 5 5 5 5 5 5 5 5 5 5 5 5 5 5 5 5 5 5 5 5 5 5 5 5 5 5 5 5 5 5 5 5 5 5 5 5 5 5 5 5 5 5 5 5 5 5 5 5 5 5 5 5 5 5 5 5 5 5 5 5 5 5 5 5 5 5 5 5 5 5 5 5 5 5 5 5 5 5 5 5 5 5 5 5 5 5 5 5 5 5 5 5 5 5 5 5 5 5 5 5 5 5 5 5 5 5 5 5 5 5 5 5 5 5 5 5 5 5 5 5 5 5 5 5 5 5 5 5 5 5 5 5 5 5 5 5 5 5 5 5 5 5 5 5 5 5 5 5 5 5 5 5 5 5 5 5 5 5 5 5 5 5 5 5 5 5 5 5 5 5 5 5 5 5 5 5 5 5 5 5 5 5 5 5 5 5 5 5 5 5 5 5 5 5 5 5 5 5 5 5 5 5 5 5 5 5 5 5 5 5 5 5 5 5 5 5 5 5 5 5 5 5 5 5 5 5 5 5 5 5 5 5 5 5 5 5 5 5 5 5 5 5 5 5 5 5 5 5 5 5 5 5 5 5 5 5 5 5 5 5 5 5 5 5 5 5 5 5 5 5 5 5 5 5 5 5 5 5 5 5 5 5 5 5 5 5 5 5 5 5 5 5 5 5 5 5 5 5 5 5 5 5 5 5 5 5 5 5 5 5 5 5 5 5 5 5 5 5 5 5 5 5 5 5 5 5 5 5 5 5 5 5 5 5 5 5 5 5 5 5 5 5 5 5 5 5 5 5 5 5 5 5 5 5 5 5 5 5 5 5 5 5 5 5 5 5 5 5 5 5 5 5 5 5 5 5 5 
CELL_DATA 429
SCALARS Coverage double 1
LOOKUP_TABLE default
1.6463916834744 2.5822487325462 3.0444231064965 3.3103719542748 2.5391124328962 2.8461011013224 2.9831978272443 2.8149504641907 2.7238051257088 3.1742031358669 2.8280269669098 3.0994027630726 3.3422110308767 2.8317982843246 2.9091925754291 3.3627405014164 2.5466785723468 2.9932645743479 3.1417960574015 3.3245979610415 3.0035464235119 2.2536232950562 3.2847616056678 2.6151100978049 3.2427918403124 3.4748399059264 2.6456058681036 1.3541299039178 3.1760043895795 3.3826772298783 2.767459918101 3.4877903166641 2.9716380606529 3.0494180784028 2.7664723202592 3.0814169442625 2.8169676225302 3.0840819870375 2.8098920470804 3.1887215903173 2.476607120691 2.3797898128387 3.0614102202046 3.0291438523772 2.5051986127017 3.1357258335034 3.0714918334259 3.4472527260418 2.4241083551974 2.9078854823379 2.7785005949066 2.9906277051983 3.3191007564398 2.6720223197939 3.4038010415037 2.6962022341568 2.8828510962007 2.3480517758153 2.7073582769386 3.3243155153029 2.9301261137632 3.0512894047947 3.3729564322088 3.1283382253181 3.0197307189288 2.9110159306666 2.0470206530371 3.1356454593918 3.4568932321015 3.1365531677071 3.533586229456 3.050366782193 2.6955873912252 3.0923058453819 2.7183445358374 3.0196362644647 3.2081040668237 3.4778753187027 2.7195718810101 3.2281497272977 2.7955065255709 3.3091796585542 2.8825856793724 3.089171993452 3.107378976175 3.5390478469848 3.0434767949305 3.4810434050599 3.1147763676706 2.6365095852349 3.006643316402 2.6244618843389 3.0774738828783 2.7044248536671 3.0757036597216 3.3438795629416 2.6671069565825 3.4344423789906 3.4302064700393 2.5360057196279 3.0713590313089 2.7670051664487 2.2648894832203 2.1273607807903 2.8013410621716 2.9162825245798 2.9549014449444 2.9525692550865 2.9345364310863 2.432318949272 2.6514225365309 3.2428912942205 2.644911327139 3.3346529488038 2.5496770279895 2.9108093437028 2.6213462005262 2.2670109898559 2.2683113489887 3.3890010315286 2.5519935244814 2.5707913414712 2.9726304684341 2.7474723138526 2.0454131320372 2.9198867080022 2.7368520975287 2.7489388097586 2.355255537491 2.7801786366116 2.9964164062779 3.1406538422812 2.9389842228539 2.5160942999856 3.2522392122135 3.0966360968055 2.5648901498714 2.3344862311046 2.6997241028209 2.267540659739 2.7658390475345 2.9823110282154 2.6375735072189 2.9477902412083 2.6082129675325 2.8723420880222 2.914954794498 2.6962501847934 2.9928963063417 2.7535303651806 3.1030228857601 2.9061307365355 3.1940916017804 2.9240109951833 3.0748939232422 2.8054731434203 2.912225802322 2.9321542787521 3.0731492971913 2.8168345776112 3.0524050538149 2.8739650200244 2.7420308358478 3.3565680315231 2.7966894812708 2.5728155688136 3.0951985926616 2.2361513878471 2.739528088432 2.7491801549437 2.9892561362772 2.9500368166918 2.6182970640897 2.7411202582303 2.7896390792997 3.0507441098922 2.7043313421497 2.8062720683678 2.4085208403964 2.5474337424152 2.8938786766414 2.7584562069534 2.3579967361752 2.6079502351292 2.3653880758166 2.7843000188408 2.7992041453625 2.4653233895354 2.0880732995735 2.540704802295 2.5758275992627 2.3432790617486 2.7102174571315 2.7235697388176 2.722754223969 2.9914135482362 2.5733684851261 2.7787977160161 2.5480882127243 2.3510937261297 2.5397038647714 2.7387490787755 2.3772835226493 2.8440463396421 2.7411414917715 2.9050743204688 2.7258996742994 2.3406744715404 2.578147446153 2.5624241897641 2.2495327430486 3.0653497021471 2.5669381680551 3.0635397227049 2.4414795759297 2.5222197762044 2.1722552997892 2.6721021387578 2.5424831340897 2.0873630119418 2.1281435435991 2.4244163401549 2.2511983342959 2.0670061626684 2.457780823981 2.3735031728419 2.0937310242248 1.9500023772944 2.9050627248473 2.5005611720823 2.4979051916306 2.1679963937886 2.3158087769504 2.6537105577965 2.4979690527354 2.8776740487986 2.5290209347962 2.6113656691961 2.5096166196823 2.3722987306947 2.4394658654133 2.5950421365559 2.2449271080566 1.4092924090966 1.6420527041879 2.0159630938396 2.0626058712251 2.1870373079888 2.4694269360129 2.012063582189 2.6214017516504 2.7211264304607 1.9495292432233 2.6409368156185 2.2959019447771 2.6117060229771 2.4953592183899 2.7105188936308 2.4175461228138 2.3995774426826 2.2707306183595 2.55391244271 2.1587428289927 2.1540180072939 2.419731079133 2.0574923463768 2.3499176300623 2.3242688412288 2.2934948192072 2.5286980660633 2.256892303932 2.7153212620178 1.8620912169311 2.5205753295704 2.3696114562171 2.6403094467378 2.1949780476066 2.1086321731937 1.9754356585622 2.1387331620813 2.1584311493615 1.7278621662897 1.3591133885228 2.3636724296422 1.8779480044761 2.4637578399922 1.6085808589987 2.4724609579456 1.7828397930368 1.9116786000232 2.4627907599884 1.3227688861618 2.2860007348263 1.8818101696887 2.5326452549213 1.8217088237282 0.98834791852041 2.1907102729017 2.0586328088915 1.564335975676 1.7574384052697 2.1230354156517 2.5017208162847 1.216326394442 1.5195784843182 1.9480724359452 1.8590735979668 1.0141666210786 1.8649790101255 2.0117194401963 2.0413660255478 1.2644799099925 2.2532165775366 2.048306099548 2.0214871883167 1.9823143240405 2.1335304030685 1.9896872567996 2.3691571131301 1.8897753789954 1.205130805496 1.6208218044892 1.5721389158091 0.8448183542091 1.2422709924858 2.0414230380827 1.6909427587525 2.1303385332114 2.0246489416146 1.9026768618897 0.86227515905839 2.0034726987479 1.7038588930732 1.8977183208121 1.6570080290493 1.4706647347047 2.0080630342266 1.8000586249048 2.2930813427532 1.877012025273 2.3977997532886 1.9966045777019 1.3588145438005 1.8877554107714 1.6175697174016 1.5513575972812 2.291705220777 2.2675198180208 1.4894490318706 1.1230111477804 2.5373786381012 1.847941772922 1.5101603720207 1.3738331783354 2.1661598397159 1.7626339179862 1.490700252386 2.3580830368083 2.1849486177904 1.1628974158326 1.6007653251426 0.97441393751437 1.9785264723744 1.7453035518536 1.4541930289545 1.9371224876387 1.0752121764194 0.89051339161738 1.1438299852292 1.7740214088378 1.6775432812098 1.4152496622647 0.73159483740781 1.4581946988802 1.098737282163 0.79046175900919 0.87968945020165 1.2070559571564 1.4386528560242 1.0397814462955 2.4565805921856 1.6721150878397 1.7197825845754 1.9181676783956 0.90119700486045 1.8982944682768 1.6728338677647 1.7056843997777 1.5700138328521 1.2265261954766 0.96833075133126 0.65724551341043 1.4869540936233 1.4899040849626 1.7301180163152 1.2514556261031 1.6907491882171 0.93763097740908 0.94221352452397 1.5929683899809 1.3530985129967 1.2014253523249 1.6232869137957 0.80098210323442 1.156788433207 0.59697769036729 0.75254118399175 0.71682693696376 1.3144419604557 1.483261802501 1.2688007099279 1.0757880537414 0.66728717592672 1.3922138893971 1.0115050112331 1.5974887050997 0.89862588279391 1.1807573419436 1.2177489763003 1.3273796327582 0.87503523827813 1.0695534913566 1.4052657231158 0.69290670584643 0.58644596447881 0.64100423976148 1.0338936689768 0.9684716844251 0.87715564760498 
SCALARS Marker double 1
LOOKUP_TABLE default
0 1 2 3 4 5 6 7 8 9 10 11 12 13 14 15 16 17 18 19 20 21 22 23 24 25 26 27 28 29 30 31 32 33 34 35 36 37 38 39 40 41 42 43 44 45 46 47 48 49 50 51 52 53 54 55 56 57 58 59 60 61 62 63 64 65 66 67 68 69 70 71 72 73 74 75 76 77 78 79 80 81 82 83 84 85 86 87 88 89 90 91 92 93 94 95 96 97 98 99 100 101 102 103 104 105 106 107 108 109 110 111 112 113 114 115 116 117 118 119 120 121 122 123 124 125 126 127 128 129 130 131 132 133 134 135 136 137 138 139 140 141 142 143 144 145 146 147 148 149 150 151 152 153 154 155 156 157 158 159 160 161 162 163 164 165 166 167 168 169 170 171 172 173 174 175 176 177 178 179 180 181 182 183 184 185 186 187 188 189 190 191 192 193 194 195 196 197 198 199 200 201 202 203 204 205 206 207 208 209 210 211 212 213 214 215 216 217 218 219 220 221 222 223 224 225 226 227 228 229 230 231 232 233 234 235 236 237 238 239 240 241 242 243 244 245 246 247 248 249 250 251 252 253 254 255 256 257 258 259 260 261 262 263 264 265 266 267 268 269 270 271 272 273 274 275 276 277 278 279 280 281 282 283 284 285 286 287 288 289 290 291 292 293 294 295 296 297 298 299 300 301 302 303 304 305 306 307 308 309 310 311 312 313 314 315 316 317 318 319 320 321 322 323 324 325 326 327 328 329 330 331 332 333 334 335 336 337 338 339 340 341 342 343 344 345 346 347 348 349 350 351 352 353 354 355 356 357 358 359 360 361 362 363 364 365 366 367 368 369 370 371 372 373 374 375 376 377 378 379 380 381 382 383 384 385 386 387 388 389 390 391 392 393 394 395 396 397 398 399 400 401 402 403 404 405 406 407 408 409 410 411 412 413 414 415 416 417 418 419 420 421 422 423 424 425 426 427 428 
SCALARS Resistivity double 1
LOOKUP_TABLE default
145.48752181643 98.356902307413 89.304799195021 67.842713336641 133.99976148086 147.43486704026 132.63925390255 76.135802735016 134.76759991275 93.753000017611 82.047242168034 77.357634635309 36.872265868899 112.9721823027 100.99096349193 215.01963800763 78.149601340641 68.261887460554 66.844364130163 71.114991601752 74.537098910188 116.83770784511 85.105291708282 80.031405591571 120.87133508902 64.878384865825 68.823504976473 218.5432818751 74.312739377301 85.000383001757 81.873339870617 70.689378669837 86.958144003082 87.952186803706 75.173701053399 151.84693381165 81.425160536423 63.115521954411 82.72771874377 85.447370569894 93.357513863373 73.518772885908 83.705649510164 64.961121910419 96.075137303627 53.164684141633 107.45958071554 133.68875592366 113.82827168286 76.890019154121 91.578339702556 77.710656047434 72.363710568179 78.652419688578 49.60753550368 88.002153553305 64.208893377385 104.97284005914 54.369650573217 51.211820218075 111.6243460628 171.19671500041 91.784907077545 73.149217679176 69.993119848305 64.389048891431 121.69735126151 122.74436240455 66.507338207478 63.511126101317 92.314602670473 94.690990037588 65.739653266751 97.054404005849 67.499313541896 96.61069461454 55.852332132186 73.762244927368 64.450417926784 52.965278878674 69.589117115876 170.45623326682 100.64451257389 84.881070783366 84.139575126402 122.40497805289 179.57355028383 156.00865297116 167.25183093757 83.2672488553 41.740523943865 111.51811347789 174.13895288004 109.69573024248 43.083388369812 40.086755484813 70.39029210563 324.90542431058 55.298953757801 82.89883462337 59.702349149025 76.412323087689 112.25077406646 42.096248323756 108.57098292742 78.703767761522 60.836566748516 47.088320783669 118.50768790858 71.812987933012 51.432059089471 71.736799924842 114.3121298287 148.84495504487 84.375174988728 78.627233504297 59.81236247237 81.701197072994 62.051896480908 107.22105426852 25.34523514961 85.502281689335 94.374200892475 99.766006568109 48.53704913566 100.12737426066 31.03073605577 83.820367176166 40.395208222683 70.128854988155 65.984800356978 101.6203960457 78.729236962515 100.27178438086 67.4152160639 132.1193468437 101.19343687156 118.20188574093 98.846991232534 94.862624377219 84.934620959135 59.01309576173 86.351789739697 82.369150794271 56.95268133989 79.7641150004 42.772360910519 88.064317954085 55.567371290026 70.343223083462 135.63004582408 109.60291599412 108.82507371083 109.74109651133 71.20651832194 88.780829252776 127.18517046014 118.22013724469 80.979891640354 93.786512596078 217.25079742296 139.4523127445 82.607184515002 194.19419782887 98.928687675363 89.100291941908 99.965448470341 45.633081852718 19.00545521734 108.00254082276 128.46385745762 92.804964776683 88.669413658849 78.941056630491 90.037829151664 108.11753147214 75.932312530677 76.458863822752 111.39739836719 110.00078636526 68.824211783323 75.355053045168 99.542546040547 80.402689567222 93.165389407557 93.106177534121 83.486731241931 88.937253297996 115.34132069116 94.391182436665 88.836699451018 143.68823722711 124.72871763602 85.61051571616 75.888120622038 55.173957428718 85.532895503817 81.546357041495 67.619979499494 57.210299564442 40.059338506975 74.468271995448 49.984174206668 110.7088795535 74.74062822485 88.374841405283 85.90388768055 111.52188476634 89.072248685848 116.03561103724 112.21370859095 146.67583192723 100.81360230771 129.96702736318 108.6721536882 89.339193337148 45.868982929344 90.243899810521 91.954757667358 115.13257003801 119.22443495715 80.368191716889 138.48345842201 141.86572490518 99.05246476942 35.42233277426 48.821978427013 124.13188100284 120.54493022578 91.600268204269 36.652925242502 109.76027315053 96.937010088479 86.144496212797 91.396252454329 99.842065116732 121.57197780977 104.45074441338 123.17696429777 107.92881915226 120.72583913722 81.930164009113 157.94281701582 121.45152641801 92.033163811577 47.766361849277 45.754812137839 102.9521876692 89.881322701548 129.11671462239 99.57072893075 92.438265644836 132.19250406755 107.42939867109 143.06316000277 104.47726284433 120.66739633747 111.71737035465 132.48719563341 99.838047163751 122.0545046296 120.477298357 166.79100914191 163.53676131456 132.62754041064 147.1434320909 134.61770713683 140.71001231306 146.16920093498 121.55342595337 124.45897718599 74.494468978313 165.00241843318 93.117809444055 109.66408735847 108.14898803012 73.155337409297 111.49572837801 155.04468030927 137.36462611614 112.37816458964 200.62239982226 213.48558159747 87.53858253102 183.25995551486 74.494824191465 170.1086271129 90.912681582195 71.121334639066 177.44721205193 106.16600089858 164.52078909966 115.63883945231 124.3714709799 90.628333176818 76.13985678025 281.92248617432 106.66840425934 99.575711747355 104.94668999713 141.04590242783 128.55874818255 80.371106148885 373.94870980564 261.25108773632 136.6695052206 219.72301237473 236.08073838028 60.673862574973 72.9339401896 188.66003084313 169.05152606221 143.35509706649 145.64278244015 164.99025000044 181.76118537867 101.30717723632 126.6480771212 90.765139088085 211.30502685428 196.74854810683 172.96824434454 104.21944702451 430.98698680403 188.99837599993 167.72896158698 235.71108452885 98.204885533692 112.98079306701 115.58789723556 316.34028392796 58.640962477416 132.03162036712 61.023264470805 97.577999289458 169.35332114392 109.93398716586 163.53011417753 108.90691930536 134.75189478557 83.597136758194 192.39684080315 136.85569633127 94.68074018842 120.50881050281 108.94702166468 87.611644098826 113.62301531883 306.59369160965 250.33582900971 80.635171996971 70.815585880626 121.44020578462 192.84780545705 103.70889029586 134.87605177069 186.87617713757 96.512190074957 125.96461651001 245.99662076403 179.12706212666 427.94859673083 111.5462717877 73.198114322302 130.73153335941 61.040934397031 207.30088468594 295.35254495635 251.25639699255 133.90774050805 150.73497366667 131.05929262319 364.83804468275 171.99408320474 245.41418651694 406.75761273497 302.62079414784 222.2332631244 233.03922325978 351.43535138726 87.909099816815 232.22014046899 196.10464800239 176.57188282155 308.83711011057 132.99868561593 205.1123865292 158.62569237527 195.36788945571 295.94123303466 274.61335825924 320.74687219371 281.13464807714 241.42991728694 211.5551077892 245.24127041723 168.64661152512 313.55337951086 289.42423184227 289.16395923207 285.01455191976 290.32482561764 170.87935581383 449.48732174388 346.16654171049 332.34926038133 325.75799833671 336.46105021228 223.9329646883 252.98714848869 351.44141248901 385.36882754669 399.13779698589 250.72438847332 339.17525240501 265.16911330547 426.00940751564 277.71882725327 232.86660064736 252.33665234983 319.26434276023 372.90241157695 322.57706203034 428.54099603603 367.29874508572 346.94032606037 303.43351294847 317.96912898792 336.29711656087 
SCALARS Resistivity_(log10) double 1
LOOKUP_TABLE default