# vtk DataFile Version 3.0
d-2__ created by libgimli-v1.5.0-1-g5991b6ac
ASCII
DATASET UNSTRUCTURED_GRID
POINTS 10201 double
0	-10	0
0.5	-10	0
0.5	-9.9	0
0	-9.9	0
1	-10	0
1	-9.9	0
1.5	-10	0
1.5	-9.9	0
2	-10	0
2	-9.9	0
2.5	-10	0
2.5	-9.9	0
3	-10	0
3	-9.9	0
3.5	-10	0
3.5	-9.9	0
4	-10	0
4	-9.9	0
4.5	-10	0
4.5	-9.9	0
5	-10	0
5	-9.9	0
5.5	-10	0
5.5	-9.9	0
6	-10	0
6	-9.9	0
6.5	-10	0
6.5	-9.9	0
7	-10	0
7	-9.9	0
7.5	-10	0
7.5	-9.9	0
8	-10	0
8	-9.9	0
8.5	-10	0
8.5	-9.9	0
9	-10	0
9	-9.9	0
9.5	-10	0
9.5	-9.9	0
10	-10	0
10	-9.9	0
10.5	-10	0
10.5	-9.9	0
11	-10	0
11	-9.9	0
11.5	-10	0
11.5	-9.9	0
12	-10	0
12	-9.9	0
12.5	-10	0
12.5	-9.9	0
13	-10	0
13	-9.9	0
13.5	-10	0
13.5	-9.9	0
14	-10	0
14	-9.9	0
14.5	-10	0
14.5	-9.9	0
15	-10	0
15	-9.9	0
15.5	-10	0
15.5	-9.9	0
16	-10	0
16	-9.9	0
16.5	-10	0
16.5	-9.9	0
17	-10	0
17	-9.9	0
17.5	-10	0
17.5	-9.9	0
18	-10	0
18	-9.9	0
18.5	-10	0
18.5	-9.9	0
19	-10	0
19	-9.9	0
19.5	-10	0
19.5	-9.9	0
20	-10	0
20	-9.9	0
20.5	-10	0
20.5	-9.9	0
21	-10	0
21	-9.9	0
21.5	-10	0
21.5	-9.9	0
22	-10	0
22	-9.9	0
22.5	-10	0
22.5	-9.9	0
23	-10	0
23	-9.9	0
23.5	-10	0
23.5	-9.9	0
24	-10	0
24	-9.9	0
24.5	-10	0
24.5	-9.9	0
25	-10	0
25	-9.9	0
25.5	-10	0
25.5	-9.9	0
26	-10	0
26	-9.9	0
26.5	-10	0
26.5	-9.9	0
27	-10	0
27	-9.9	0
27.5	-10	0
27.5	-9.9	0
28	-10	0
28	-9.9	0
28.5	-10	0
28.5	-9.9	0
29	-10	0
29	-9.9	0
29.5	-10	0
29.5	-9.9	0
30	-10	0
30	-9.9	0
30.5	-10	0
30.5	-9.9	0
31	-10	0
31	-9.9	0
31.5	-10	0
31.5	-9.9	0
32	-10	0
32	-9.9	0
32.5	-10	0
32.5	-9.9	0
33	-10	0
33	-9.9	0
33.5	-10	0
33.5	-9.9	0
34	-10	0
34	-9.9	0
34.5	-10	0
34.5	-9.9	0
35	-10	0
35	-9.9	0
35.5	-10	0
35.5	-9.9	0
36	-10	0
36	-9.9	0
36.5	-10	0
36.5	-9.9	0
37	-10	0
37	-9.9	0
37.5	-10	0
37.5	-9.9	0
38	-10	0
38	-9.9	0
38.5	-10	0
38.5	-9.9	0
39	-10	0
39	-9.9	0
39.5	-10	0
39.5	-9.9	0
40	-10	0
40	-9.9	0
40.5	-10	0
40.5	-9.9	0
41	-10	0
41	-9.9	0
41.5	-10	0
41.5	-9.9	0
42	-10	0
42	-9.9	0
42.5	-10	0
42.5	-9.9	0
43	-10	0
43	-9.9	0
43.5	-10	0
43.5	-9.9	0
44	-10	0
44	-9.9	0
44.5	-10	0
44.5	-9.9	0
45	-10	0
45	-9.9	0
45.5	-10	0
45.5	-9.9	0
46	-10	0
46	-9.9	0
46.5	-10	0
46.5	-9.9	0
47	-10	0
47	-9.9	0
47.5	-10	0
47.5	-9.9	0
48	-10	0
48	-9.9	0
48.5	-10	0
48.5	-9.9	0
49	-10	0
49	-9.9	0
49.5	-10	0
49.5	-9.9	0
50	-10	0
50	-9.9	0
0.5	-9.8	0
0	-9.8	0
1	-9.8	0
1.5	-9.8	0
2	-9.8	0
2.5	-9.8	0
3	-9.8	0
3.5	-9.8	0
4	-9.8	0
4.5	-9.8	0
5	-9.8	0
5.5	-9.8	0
6	-9.8	0
6.5	-9.8	0
7	-9.8	0
7.5	-9.8	0
8	-9.8	0
8.5	-9.8	0
9	-9.8	0
9.5	-9.8	0
10	-9.8	0
10.5	-9.8	0
11	-9.8	0
11.5	-9.8	0
12	-9.8	0
12.5	-9.8	0
13	-9.8	0
13.5	-9.8	0
14	-9.8	0
14.5	-9.8	0
15	-9.8	0
15.5	-9.8	0
16	-9.8	0
16.5	-9.8	0
17	-9.8	0
17.5	-9.8	0
18	-9.8	0
18.5	-9.8	0
19	-9.8	0
19.5	-9.8	0
20	-9.8	0
20.5	-9.8	0
21	-9.8	0
21.5	-9.8	0
22	-9.8	0
22.5	-9.8	0
23	-9.8	0
23.5	-9.8	0
24	-9.8	0
24.5	-9.8	0
25	-9.8	0
25.5	-9.8	0
26	-9.8	0
26.5	-9.8	0
27	-9.8	0
27.5	-9.8	0
28	-9.8	0
28.5	-9.8	0
29	-9.8	0
29.5	-9.8	0
30	-9.8	0
30.5	-9.8	0
31	-9.8	0
31.5	-9.8	0
32	-9.8	0
32.5	-9.8	0
33	-9.8	0
33.5	-9.8	0
34	-9.8	0
34.5	-9.8	0
35	-9.8	0
35.5	-9.8	0
36	-9.8	0
36.5	-9.8	0
37	-9.8	0
37.5	-9.8	0
38	-9.8	0
38.5	-9.8	0
39	-9.8	0
39.5	-9.8	0
40	-9.8	0
40.5	-9.8	0
41	-9.8	0
41.5	-9.8	0
42	-9.8	0
42.5	-9.8	0
43	-9.8	0
43.5	-9.8	0
44	-9.8	0
44.5	-9.8	0
45	-9.8	0
45.5	-9.8	0
46	-9.8	0
46.5	-9.8	0
47	-9.8	0
47.5	-9.8	0
48	-9.8	0
48.5	-9.8	0
49	-9.8	0
49.5	-9.8	0
50	-9.8	0
0.5	-9.7	0
0	-9.7	0
1	-9.7	0
1.5	-9.7	0
2	-9.7	0
2.5	-9.7	0
3	-9.7	0
3.5	-9.7	0
4	-9.7	0
4.5	-9.7	0
5	-9.7	0
5.5	-9.7	0
6	-9.7	0
6.5	-9.7	0
7	-9.7	0
7.5	-9.7	0
8	-9.7	0
8.5	-9.7	0
9	-9.7	0
9.5	-9.7	0
10	-9.7	0
10.5	-9.7	0
11	-9.7	0
11.5	-9.7	0
12	-9.7	0
12.5	-9.7	0
13	-9.7	0
13.5	-9.7	0
14	-9.7	0
14.5	-9.7	0
15	-9.7	0
15.5	-9.7	0
16	-9.7	0
16.5	-9.7	0
17	-9.7	0
17.5	-9.7	0
18	-9.7	0
18.5	-9.7	0
19	-9.7	0
19.5	-9.7	0
20	-9.7	0
20.5	-9.7	0
21	-9.7	0
21.5	-9.7	0
22	-9.7	0
22.5	-9.7	0
23	-9.7	0
23.5	-9.7	0
24	-9.7	0
24.5	-9.7	0
25	-9.7	0
25.5	-9.7	0
26	-9.7	0
26.5	-9.7	0
27	-9.7	0
27.5	-9.7	0
28	-9.7	0
28.5	-9.7	0
29	-9.7	0
29.5	-9.7	0
30	-9.7	0
30.5	-9.7	0
31	-9.7	0
31.5	-9.7	0
32	-9.7	0
32.5	-9.7	0
33	-9.7	0
33.5	-9.7	0
34	-9.7	0
34.5	-9.7	0
35	-9.7	0
35.5	-9.7	0
36	-9.7	0
36.5	-9.7	0
37	-9.7	0
37.5	-9.7	0
38	-9.7	0
38.5	-9.7	0
39	-9.7	0
39.5	-9.7	0
40	-9.7	0
40.5	-9.7	0
41	-9.7	0
41.5	-9.7	0
42	-9.7	0
42.5	-9.7	0
43	-9.7	0
43.5	-9.7	0
44	-9.7	0
44.5	-9.7	0
45	-9.7	0
45.5	-9.7	0
46	-9.7	0
46.5	-9.7	0
47	-9.7	0
47.5	-9.7	0
48	-9.7	0
48.5	-9.7	0
49	-9.7	0
49.5	-9.7	0
50	-9.7	0
0.5	-9.6	0
0	-9.6	0
1	-9.6	0
1.5	-9.6	0
2	-9.6	0
2.5	-9.6	0
3	-9.6	0
3.5	-9.6	0
4	-9.6	0
4.5	-9.6	0
5	-9.6	0
5.5	-9.6	0
6	-9.6	0
6.5	-9.6	0
7	-9.6	0
7.5	-9.6	0
8	-9.6	0
8.5	-9.6	0
9	-9.6	0
9.5	-9.6	0
10	-9.6	0
10.5	-9.6	0
11	-9.6	0
11.5	-9.6	0
12	-9.6	0
12.5	-9.6	0
13	-9.6	0
13.5	-9.6	0
14	-9.6	0
14.5	-9.6	0
15	-9.6	0
15.5	-9.6	0
16	-9.6	0
16.5	-9.6	0
17	-9.6	0
17.5	-9.6	0
18	-9.6	0
18.5	-9.6	0
19	-9.6	0
19.5	-9.6	0
20	-9.6	0
20.5	-9.6	0
21	-9.6	0
21.5	-9.6	0
22	-9.6	0
22.5	-9.6	0
23	-9.6	0
23.5	-9.6	0
24	-9.6	0
24.5	-9.6	0
25	-9.6	0
25.5	-9.6	0
26	-9.6	0
26.5	-9.6	0
27	-9.6	0
27.5	-9.6	0
28	-9.6	0
28.5	-9.6	0
29	-9.6	0
29.5	-9.6	0
30	-9.6	0
30.5	-9.6	0
31	-9.6	0
31.5	-9.6	0
32	-9.6	0
32.5	-9.6	0
33	-9.6	0
33.5	-9.6	0
34	-9.6	0
34.5	-9.6	0
35	-9.6	0
35.5	-9.6	0
36	-9.6	0
36.5	-9.6	0
37	-9.6	0
37.5	-9.6	0
38	-9.6	0
38.5	-9.6	0
39	-9.6	0
39.5	-9.6	0
40	-9.6	0
40.5	-9.6	0
41	-9.6	0
41.5	-9.6	0
42	-9.6	0
42.5	-9.6	0
43	-9.6	0
43.5	-9.6	0
44	-9.6	0
44.5	-9.6	0
45	-9.6	0
45.5	-9.6	0
46	-9.6	0
46.5	-9.6	0
47	-9.6	0
47.5	-9.6	0
48	-9.6	0
48.5	-9.6	0
49	-9.6	0
49.5	-9.6	0
50	-9.6	0
0.5	-9.5	0
0	-9.5	0
1	-9.5	0
1.5	-9.5	0
2	-9.5	0
2.5	-9.5	0
3	-9.5	0
3.5	-9.5	0
4	-9.5	0
4.5	-9.5	0
5	-9.5	0
5.5	-9.5	0
6	-9.5	0
6.5	-9.5	0
7	-9.5	0
7.5	-9.5	0
8	-9.5	0
8.5	-9.5	0
9	-9.5	0
9.5	-9.5	0
10	-9.5	0
10.5	-9.5	0
11	-9.5	0
11.5	-9.5	0
12	-9.5	0
12.5	-9.5	0
13	-9.5	0
13.5	-9.5	0
14	-9.5	0
14.5	-9.5	0
15	-9.5	0
15.5	-9.5	0
16	-9.5	0
16.5	-9.5	0
17	-9.5	0
17.5	-9.5	0
18	-9.5	0
18.5	-9.5	0
19	-9.5	0
19.5	-9.5	0
20	-9.5	0
20.5	-9.5	0
21	-9.5	0
21.5	-9.5	0
22	-9.5	0
22.5	-9.5	0
23	-9.5	0
23.5	-9.5	0
24	-9.5	0
24.5	-9.5	0
25	-9.5	0
25.5	-9.5	0
26	-9.5	0
26.5	-9.5	0
27	-9.5	0
27.5	-9.5	0
28	-9.5	0
28.5	-9.5	0
29	-9.5	0
29.5	-9.5	0
30	-9.5	0
30.5	-9.5	0
31	-9.5	0
31.5	-9.5	0
32	-9.5	0
32.5	-9.5	0
33	-9.5	0
33.5	-9.5	0
34	-9.5	0
34.5	-9.5	0
35	-9.5	0
35.5	-9.5	0
36	-9.5	0
36.5	-9.5	0
37	-9.5	0
37.5	-9.5	0
38	-9.5	0
38.5	-9.5	0
39	-9.5	0
39.5	-9.5	0
40	-9.5	0
40.5	-9.5	0
41	-9.5	0
41.5	-9.5	0
42	-9.5	0
42.5	-9.5	0
43	-9.5	0
43.5	-9.5	0
44	-9.5	0
44.5	-9.5	0
45	-9.5	0
45.5	-9.5	0
46	-9.5	0
46.5	-9.5	0
47	-9.5	0
47.5	-9.5	0
48	-9.5	0
48.5	-9.5	0
49	-9.5	0
49.5	-9.5	0
50	-9.5	0
0.5	-9.4	0
0	-9.4	0
1	-9.4	0
1.5	-9.4	0
2	-9.4	0
2.5	-9.4	0
3	-9.4	0
3.5	-9.4	0
4	-9.4	0
4.5	-9.4	0
5	-9.4	0
5.5	-9.4	0
6	-9.4	0
6.5	-9.4	0
7	-9.4	0
7.5	-9.4	0
8	-9.4	0
8.5	-9.4	0
9	-9.4	0
9.5	-9.4	0
10	-9.4	0
10.5	-9.4	0
11	-9.4	0
11.5	-9.4	0
12	-9.4	0
12.5	-9.4	0
13	-9.4	0
13.5	-9.4	0
14	-9.4	0
14.5	-9.4	0
15	-9.4	0
15.5	-9.4	0
16	-9.4	0
16.5	-9.4	0
17	-9.4	0
17.5	-9.4	0
18	-9.4	0
18.5	-9.4	0
19	-9.4	0
19.5	-9.4	0
20	-9.4	0
20.5	-9.4	0
21	-9.4	0
21.5	-9.4	0
22	-9.4	0
22.5	-9.4	0
23	-9.4	0
23.5	-9.4	0
24	-9.4	0
24.5	-9.4	0
25	-9.4	0
25.5	-9.4	0
26	-9.4	0
26.5	-9.4	0
27	-9.4	0
27.5	-9.4	0
28	-9.4	0
28.5	-9.4	0
29	-9.4	0
29.5	-9.4	0
30	-9.4	0
30.5	-9.4	0
31	-9.4	0
31.5	-9.4	0
32	-9.4	0
32.5	-9.4	0
33	-9.4	0
33.5	-9.4	0
34	-9.4	0
34.5	-9.4	0
35	-9.4	0
35.5	-9.4	0
36	-9.4	0
36.5	-9.4	0
37	-9.4	0
37.5	-9.4	0
38	-9.4	0
38.5	-9.4	0
39	-9.4	0
39.5	-9.4	0
40	-9.4	0
40.5	-9.4	0
41	-9.4	0
41.5	-9.4	0
42	-9.4	0
42.5	-9.4	0
43	-9.4	0
43.5	-9.4	0
44	-9.4	0
44.5	-9.4	0
45	-9.4	0
45.5	-9.4	0
46	-9.4	0
46.5	-9.4	0
47	-9.4	0
47.5	-9.4	0
48	-9.4	0
48.5	-9.4	0
49	-9.4	0
49.5	-9.4	0
50	-9.4	0
0.5	-9.3	0
0	-9.3	0
1	-9.3	0
1.5	-9.3	0
2	-9.3	0
2.5	-9.3	0
3	-9.3	0
3.5	-9.3	0
4	-9.3	0
4.5	-9.3	0
5	-9.3	0
5.5	-9.3	0
6	-9.3	0
6.5	-9.3	0
7	-9.3	0
7.5	-9.3	0
8	-9.3	0
8.5	-9.3	0
9	-9.3	0
9.5	-9.3	0
10	-9.3	0
10.5	-9.3	0
11	-9.3	0
11.5	-9.3	0
12	-9.3	0
12.5	-9.3	0
13	-9.3	0
13.5	-9.3	0
14	-9.3	0
14.5	-9.3	0
15	-9.3	0
15.5	-9.3	0
16	-9.3	0
16.5	-9.3	0
17	-9.3	0
17.5	-9.3	0
18	-9.3	0
18.5	-9.3	0
19	-9.3	0
19.5	-9.3	0
20	-9.3	0
20.5	-9.3	0
21	-9.3	0
21.5	-9.3	0
22	-9.3	0
22.5	-9.3	0
23	-9.3	0
23.5	-9.3	0
24	-9.3	0
24.5	-9.3	0
25	-9.3	0
25.5	-9.3	0
26	-9.3	0
26.5	-9.3	0
27	-9.3	0
27.5	-9.3	0
28	-9.3	0
28.5	-9.3	0
29	-9.3	0
29.5	-9.3	0
30	-9.3	0
30.5	-9.3	0
31	-9.3	0
31.5	-9.3	0
32	-9.3	0
32.5	-9.3	0
33	-9.3	0
33.5	-9.3	0
34	-9.3	0
34.5	-9.3	0
35	-9.3	0
35.5	-9.3	0
36	-9.3	0
36.5	-9.3	0
37	-9.3	0
37.5	-9.3	0
38	-9.3	0
38.5	-9.3	0
39	-9.3	0
39.5	-9.3	0
40	-9.3	0
40.5	-9.3	0
41	-9.3	0
41.5	-9.3	0
42	-9.3	0
42.5	-9.3	0
43	-9.3	0
43.5	-9.3	0
44	-9.3	0
44.5	-9.3	0
45	-9.3	0
45.5	-9.3	0
46	-9.3	0
46.5	-9.3	0
47	-9.3	0
47.5	-9.3	0
48	-9.3	0
48.5	-9.3	0
49	-9.3	0
49.5	-9.3	0
50	-9.3	0
0.5	-9.2	0
0	-9.2	0
1	-9.2	0
1.5	-9.2	0
2	-9.2	0
2.5	-9.2	0
3	-9.2	0
3.5	-9.2	0
4	-9.2	0
4.5	-9.2	0
5	-9.2	0
5.5	-9.2	0
6	-9.2	0
6.5	-9.2	0
7	-9.2	0
7.5	-9.2	0
8	-9.2	0
8.5	-9.2	0
9	-9.2	0
9.5	-9.2	0
10	-9.2	0
10.5	-9.2	0
11	-9.2	0
11.5	-9.2	0
12	-9.2	0
12.5	-9.2	0
13	-9.2	0
13.5	-9.2	0
14	-9.2	0
14.5	-9.2	0
15	-9.2	0
15.5	-9.2	0
16	-9.2	0
16.5	-9.2	0
17	-9.2	0
17.5	-9.2	0
18	-9.2	0
18.5	-9.2	0
19	-9.2	0
19.5	-9.2	0
20	-9.2	0
20.5	-9.2	0
21	-9.2	0
21.5	-9.2	0
22	-9.2	0
22.5	-9.2	0
23	-9.2	0
23.5	-9.2	0
24	-9.2	0
24.5	-9.2	0
25	-9.2	0
25.5	-9.2	0
26	-9.2	0
26.5	-9.2	0
27	-9.2	0
27.5	-9.2	0
28	-9.2	0
28.5	-9.2	0
29	-9.2	0
29.5	-9.2	0
30	-9.2	0
30.5	-9.2	0
31	-9.2	0
31.5	-9.2	0
32	-9.2	0
32.5	-9.2	0
33	-9.2	0
33.5	-9.2	0
34	-9.2	0
34.5	-9.2	0
35	-9.2	0
35.5	-9.2	0
36	-9.2	0
36.5	-9.2	0
37	-9.2	0
37.5	-9.2	0
38	-9.2	0
38.5	-9.2	0
39	-9.2	0
39.5	-9.2	0
40	-9.2	0
40.5	-9.2	0
41	-9.2	0
41.5	-9.2	0
42	-9.2	0
42.5	-9.2	0
43	-9.2	0
43.5	-9.2	0
44	-9.2	0
44.5	-9.2	0
45	-9.2	0
45.5	-9.2	0
46	-9.2	0
46.5	-9.2	0
47	-9.2	0
47.5	-9.2	0
48	-9.2	0
48.5	-9.2	0
49	-9.2	0
49.5	-9.2	0
50	-9.2	0
0.5	-9.1	0
0	-9.1	0
1	-9.1	0
1.5	-9.1	0
2	-9.1	0
2.5	-9.1	0
3	-9.1	0
3.5	-9.1	0
4	-9.1	0
4.5	-9.1	0
5	-9.1	0
5.5	-9.1	0
6	-9.1	0
6.5	-9.1	0
7	-9.1	0
7.5	-9.1	0
[...]
CELL_DATA 10000
SCALARS Coverage double 1
LOOKUP_TABLE default
-0.23771598398867 -0.21336261649931 -0.19054177293641 -0.16921829269999 -0.14924643866853 -0.13057275085514 -0.11316545050524 -0.096965783098515 -0.081917796147793 -0.06801492632299 -0.055180293543634 -0.043508175252458 -0.032837939566956 -0.023134958000575 -0.014255272052932 -0.0059814662395004 0.001386416874924 0.0082312569099506 0.014339113385668 0.020106875694638 0.025179947687838 0.030092049591101 0.034421330895272 0.038523266807347 0.042467600270294 0.045869194933576 0.049321464954538 0.052277062751325 0.055159477087844 0.057730984957228 0.060313917635083 0.062683700227648 0.065098696309285 0.067507038720658 0.069505868358152 0.071567336869086 0.073723335821368 0.075638885666606 0.077566219499341 0.079498246957284 0.081063388201076 0.082595193866436 0.083864651941376 0.085027018864733 0.085909666308834 0.08674836907357 0.087014324693796 0.087116805313827 0.0868013925769 0.086247852026918 0.085463799540043 0.084668356488006 0.083712563497978 0.08297432288202 0.082175280737707 0.081477012514576 0.080610764761582 0.079704972600966 0.078585461383638 0.077340730846999 0.075981807801842 0.07430520982689 0.072612935570225 0.070617971932576 0.068146912713459 0.065317376535106 0.062160223144663 0.058392029489653 0.054301178653354 0.049632974475552 0.044554899363324 0.038826809763346 0.032637837267015 0.026103951086739 0.019021290085964 0.011557938039996 0.0036194661894004 -0.004595943601232 -0.013412257322745 -0.022423586019372 -0.032013901223775 -0.041916616615245 -0.05241276797297 -0.063306716254422 -0.074836960703998 -0.086756291619016 -0.09910401944501 -0.11194239892944 -0.1251915078668 -0.1392846547625 -0.15416375582634 -0.16955370539628 -0.18551896935869 -0.20219793744868 -0.21979403615373 -0.23835657405456 -0.25770751730619 -0.27785895666266 -0.29891223497291 -0.32129363728851 -0.22633364468456 -0.20174317130683 -0.17870731479623 -0.15718980842823 -0.13702961712086 -0.11817920106054 -0.1006113677415 -0.08428328086794 -0.069109643576206 -0.055075768055313 -0.042141759134503 -0.030375647893901 -0.019607578636554 -0.0098254614535378 -0.00086231081869437 0.007433440946472 0.014903786014681 0.021750893583492 0.027971694924829 0.033722968591228 0.038907264829722 0.043789400021451 0.048203769110096 0.052337117144378 0.056263173684396 0.059756371526708 0.063167009693489 0.066183665742841 0.069049923680667 0.071658884072715 0.074195780194501 0.076617009451572 0.079039565046049 0.081388653293651 0.083448575374151 0.085497135001967 0.087621131175746 0.089579677606955 0.091507186258248 0.093389597272317 0.095011306667958 0.096523027772826 0.097794698667562 0.098901174194607 0.099835210164764 0.10062377751728 0.10094060680993 0.10099656402893 0.10072257657687 0.10016315123038 0.099392283426479 0.098576902702952 0.097694077010683 0.096916463171067 0.09618732375917 0.095513313881746 0.094700229138345 0.093802503925286 0.092758315651892 0.091561658986727 0.090213772001454 0.088618519920022 0.086970968214273 0.084981153301434 0.082572900780741 0.079774763734892 0.076601280725029 0.072886333982918 0.068792866204027 0.064135387841867 0.059011445669953 0.053284307760405 0.047074871171981 0.040466655601473 0.03337138929976 0.025864415793789 0.017879628019203 0.0095550365401105 0.00073521713509839 -0.00840585747256 -0.018023171440438 -0.028016007917148 -0.038581932708166 -0.049619780161996 -0.06120764366737 -0.073227281783562 -0.08573697184021 -0.098658270249249 -0.11204032207357 -0.12628195441573 -0.14128812443008 -0.15685141538539 -0.17299175724628 -0.18983055884037 -0.207621402644 -0.22638051333461 -0.24593777778357 -0.26629830906525 -0.28756630369904 -0.31018332388791 -0.21485437539322 -0.19002655764201 -0.1667729749182 -0.1450552953908 -0.12470840427977 -0.10567709465984 -0.087952021935508 -0.071490172938761 -0.05619076231164 -0.042031239408295 -0.028988963615578 -0.017133337910964 -0.006269785679409 0.0035926325569437 0.01263162358038 0.020967946262543 0.02851568809877 0.035396077709265 0.041702468856185 0.047461781192662 0.052724224599708 0.057608539150902 0.062083863825086 0.066249395394292 0.070181176356988 0.073732483192436 0.077135548436229 0.080189663957368 0.08304238848725 0.085678485590516 0.088195342324036 0.090645179226672 0.093073072316837 0.095394743584614 0.097481908604403 0.099519315856398 0.10163409489074 0.10361668999656 0.10554109444257 0.1074009625019 0.10905317185583 0.11054567836897 0.11181488439049 0.11289098676313 0.11384489278477 0.11461248916727 0.11495402045821 0.11499018259748 0.11473456608161 0.11417759298306 0.11341682981259 0.1125999362175 0.11176663851181 0.11097715261803 0.11029360919366 0.1096538872512 0.10888527597043 0.10801791756023 0.10703561215806 0.10588816950132 0.10457372291509 0.10304084807941 0.10143559486822 0.0994713309484 0.097116001903439 0.094339991259145 0.091179091966577 0.087500956168649 0.083404654296752 0.078754711882861 0.073606319885527 0.067861434582641 0.061629964246366 0.054967436166866 0.047838256374098 0.040291274210401 0.032259665316078 0.023839302362919 0.014989522466132 0.0057525465793613 -0.0039162416108179 -0.013986378980413 -0.024634945177541 -0.035800198485911 -0.047464640563194 -0.059584677309851 -0.072230194934159 -0.085256966790412 -0.098764291981856 -0.11315084883628 -0.12829661998756 -0.14402338853593 -0.16033086751741 -0.17734306818179 -0.19532831347714 -0.21428181752351 -0.23404627645388 -0.25462089394531 -0.27610652656572 -0.29896156249711 -0.20328129988389 -0.17821266195175 -0.15473814953494 -0.13281492897229 -0.11228134937262 -0.093068933976312 -0.075185783407801 -0.058584986124213 -0.043160558431282 -0.028873541297382 -0.015725674311721 -0.0037788462856931 0.0071754897846746 0.017118935171379 0.026229723394418 0.034617496443324 0.042232154349229 0.049155856798974 0.055531227385346 0.0613171509464 0.066636913938913 0.071542160636966 0.076066157632899 0.08026138525093 0.084212675106633 0.08780665397535 0.091216404779584 0.094299408841561 0.097143512272794 0.099794592008227 0.10231502916681 0.10477079939099 0.10720558440573 0.10951654529657 0.11161470146186 0.11363935201949 0.11575255549991 0.11775388369057 0.11967666008365 0.1215273307396 0.12319375449251 0.12466727171944 0.12593510684791 0.12699283509394 0.12795400089615 0.12871488866564 0.12906471277309 0.12908605245476 0.12885027537688 0.12829902421103 0.12754683767042 0.12673661389249 0.12593703668044 0.12514836903452 0.12450235304174 0.12389885895008 0.12317396034347 0.12235305670264 0.12141986503112 0.12032809842675 0.11905784230816 0.11758150257908 0.11601505412659 0.11409007257829 0.11177659273234 0.10903212897692 0.10588695521341 0.10223930699068 0.098140799754638 0.093501385301343 0.088327210032029 0.08256067073098 0.076303456041776 0.069598239204606 0.062434292727362 0.05484499792168 0.046758205385239 0.038260908976963 0.029356699354998 0.020050730948678 0.010311113067078 0.00016568935969466 -0.010563635971032 -0.021850210327315 -0.033596959611441 -0.045821717813033 -0.058587669795386 -0.071730545558658 -0.085364491026794 -0.099889223310756 -0.11518430321877 -0.13107071654573 -0.1475426264209 -0.16473088694413 -0.1829091355995 -0.20206210844485 -0.2220357710438 -0.24282923044051 -0.26453292155387 -0.28761975842353 -0.19161120885639 -0.16630066106602 -0.14260211043776 -0.1204705730825 -0.09974799650126 -0.080353861505062 -0.062311278057985 -0.045567461840487 -0.030011942107979 -0.015604747327218 -0.002352574335641 0.0096872803717886 0.020729491341025 0.030752676583564 0.039934219937095 0.048379578712895 0.056055668405408 0.063031383127348 0.069462025586385 0.075284622407429 0.080654044895948 0.085589013946343 0.09015210396799 0.094382824548178 0.098357046463288 0.10198586069003 0.10541001758637 0.10851618896026 0.1113552692992 0.11401562534181 0.11654495989888 0.11900621283693 0.12144968780491 0.12375082389065 0.12585071517938 0.12786619531952 0.12998910147779 0.13200055918518 0.13392332255366 0.13576068831133 0.13743713349124 0.13889789212106 0.14016628964543 0.14120662026884 0.14216827333209 0.1429241441575 0.14327639436204 0.14329763791545 0.14307661870886 0.14252513927192 0.1417864231009 0.14098330871978 0.14020796106139 0.13943498232437 0.13882258305562 0.13825279672545 0.13757442158949 0.13680078091731 0.13591699834551 0.13488634300282 0.13366109408773 0.13224586715042 0.13071992611014 0.128836269487 0.12655852936856 0.1238458178552 0.12072893058526 0.1171072955154 0.11300662685824 0.10837327679251 0.10317778737967 0.097383202701734 0.091099396677944 0.084367304319036 0.07716143690264 0.069528614176127 0.061382934415251 0.052812443107439 0.043856412556438 0.034479895154047 0.024667846184525 0.014445653587047 0.0036346113037913 -0.0077602048095302 -0.01959775326116 -0.031931772563937 -0.044808855838394 -0.058078057609016 -0.071839881090638 -0.086498925861207 -0.10194463737786 -0.11799566776149 -0.13462942390216 -0.1519923112229 -0.17036456982677 -0.18972001428615 -0.20991111708943 -0.23091746574237 -0.2528439229674 -0.27616814678157 -0.17985744241079 -0.1542908358297 -0.13036443067454 -0.10802180701484 -0.087106167597922 -0.067531353471054 -0.049328183624616 -0.032438119595481 -0.016751738568407 -0.002224287930497 0.011131155399239 0.023264540255879 0.034392189071638 0.044495527769574 0.053748588757944 0.062256073008731 0.069987949996136 0.077020056706113 0.083497671985879 0.089363235417995 0.094778488807986 0.099749897417938 0.10434251980908 0.10861406603857 0.11261103180058 0.11627777814257 0.11971922784201 0.1228403661492 0.12567668643597 0.1283535288192 0.13088693218336 0.13335172407994 0.13579917597495 0.13809698799251 0.14019165593696 0.1422138887349 0.14433715699804 0.14635585248148 0.14827654312853 0.15010905069484 0.15178439647547 0.15324830044639 0.15450231936399 0.15553083084318 0.15648976370486 0.15724632848061 0.1575946389282 0.15762642123311 0.15740568449881 0.15686518499869 0.1561350660337 0.15534415334118 0.15458416980791 0.15383415715612 0.15324788765251 0.15271957423742 0.15208600617054 0.15136334058553 0.15053136609939 0.14956656691918 0.14839350722499 0.14702819059914 0.14554562652088 0.14371011817705 0.14146594700339 0.13879273896408 0.13570423798098 0.13210388776137 0.12800468464518 0.12337140913506 0.11815226669042 0.11234068193551 0.10603047403936 0.099262889865125 0.092015671090124 0.084337701328854 0.076139841174669 0.067498864938688 0.058486246027469 0.049039206535382 0.039147938774034 0.02885799028646 0.017959299911214 0.0064632098415037 -0.0054742763059162 -0.017913975108459 -0.030897450921691 -0.044294462327055 -0.058187885346535 -0.072983733900263 -0.088574774805853 -0.10479847591873 -0.12159325626788 -0.13913022763749 -0.15769969179159 -0.17726309538872 -0.19766878692394 -0.21889213362072 -0.24103956174227 -0.26459469960812 -0.16799997150652 -0.14218190602988 -0.11802455596537 -0.095465403171436 -0.074352261870818 -0.054600856469822 -0.036235921979174 -0.019198589841076 -0.003378324162403 0.01126835646835 0.02472801650542 0.036957608750739 0.048166706623724 0.058349228451882 0.06767239276069 0.076243840428667 0.084029394061423 0.091123728763708 0.097640305754464 0.10355526348404 0.10901125885133 0.11402192816886 0.118644717336 0.12295857986902 0.1269774536654 0.13067978161493 0.13413746736278 0.13727375857863 0.140111126084 0.14280437006883 0.14534455799942 0.14781006681954 0.15025692827547 0.15255553359582 0.15464790257826 0.15667716779115 0.15879797777305 0.16082089451992 0.16274151470696 0.16456801316659 0.16624050423402 0.167711347091 0.16895140621045 0.16996413780703 0.17091808446011 0.17167400869526 0.17202546454716 0.1720665700984 0.17184473615291 0.1713121042104 0.17059287863935 0.16981287599701 0.1690710861831 0.16835051478652 0.16778331794636 0.16729767004095 0.16671278008659 0.16603948099416 0.16525735712152 0.16436774609005 0.16324928298072 0.16194044513895 0.16049923298758 0.15871396885188 0.15650105773288 0.15387391792041 0.1508112220831 0.14723567174223 0.14313391352352 0.13850172717944 0.13325626652864 0.12743368739946 0.12108700814841 0.11428935187451 0.10700334862096 0.099279742602464 0.091019571296348 0.082318146886382 0.073238334874486 0.063725480992248 0.053759150880831 0.04339831332982 0.032409885423103 0.020819151415612 0.0087752242616409 -0.00376924946494 -0.016861664195984 -0.030383857430599 -0.044405088815774 -0.059338305223604 -0.075076742454566 -0.091472564107934 -0.10843311720558 -0.12614894867802 -0.14491515598204 -0.16468871351071 -0.18530998164902 -0.20675402322082 -0.22912105936749 -0.25290995296983 -0.15605268756252 -0.1299721730418 -0.10558179540516 -0.082803085897387 -0.061489501540903 -0.041561519129037 -0.023032542153897 -0.0058483838765755 0.010107898134673 0.024873734789558 0.038437587158458 0.05076611279838 0.06205636504546 0.072314205189185 0.081708890917365 0.09034086471969 0.098182529715862 0.10534338099508 0.11189644691763 0.11786152604855 0.12335619077505 0.12840630356339 0.13306033948468 0.13741930489088 0.14145827766391 0.14519637967299 0.14867089315974 0.15182085155437 0.15465911578635 0.15737327901626 0.15991694924297 0.16238340566688 0.16482588854522 0.16712539201857 0.16922022690806 0.17125471560874 0.17337270350006 0.17539970438925 0.17731976082643 0.17914103489922 0.18081609216388 0.18228356906696 0.18351100926663 0.18451177007321 0.1854557951953 0.18621223799333 0.18657098438309 0.18661849212547 0.18639416074905 0.18586793932663 0.18516342222504 0.18439482060777 0.18367098921208 0.18297916089767 0.18242843989068 0.18198556442646 0.18145739254126 0.18082975090246 0.18010344455889 0.17929057460951 0.17822614047182 0.17697429682495 0.17558257183073 0.17384510407859 0.1716639318201 0.16908266759344 0.16604839621355 0.16249668378622 0.15840242793571 0.15376540037266 0.14849467494913 0.14265840244736 0.13626637810549 0.12944132880306 0.12212839576719 0.11435251274982 0.10603126594416 0.097265027165212 0.088115040356791 0.078537235876672 0.068501559152877 0.058062587141273 0.04699188079825 0.035298412136321 0.023148320508664 0.010503043132607 -0.0026975896759209 -0.016344344644345 -0.03049182909952 -0.04556148526908 -0.061456045701331 -0.07801848046302 -0.095146924367949 -0.11304344257533 -0.13200293488928 -0.1519936170119 -0.17283255969794 -0.19450266311406 -0.21708928441836 -0.24111161322923 -0.1440021713231 -0.11766213240572 -0.093035716535555 -0.070034678855352 -0.048518752896107 -0.028411817397197 -0.0097184776671424 0.0076142729724286 0.023707300368517 0.038591961010044 0.052259037286351 0.064686879506066 0.076057287803396 0.086391854400798 0.095859414900727 0.10455229074569 0.11245069985975 0.11967719948935 0.12626661816852 0.13228165106541 0.13781332225306 0.14290736362695 0.14759014334172 0.15199190396105 0.1560507647545 0.15982973809565 0.16331976576239 0.16648040855551 0.16932244881782 0.1720628223669 0.17460460029001 0.17706962546127 0.17950560809462 0.18180936587854 0.18391020431969 0.18595022938881 0.188060131076 0.1900947275779 0.19201136905861 0.19382795748432 0.19550370679278 0.19696672453801 0.19818315429078 0.19917346374837 0.20010905220702 0.20085647253665 0.20123007558582 0.20128296870604 0.20105645215243 0.20053755049123 0.19984762422024 0.19909030843623 0.19838556250519 0.19772463183345 0.19718652726615 0.19678924617206 0.19632460881479 0.19574026735537 0.19507535432289 0.19433548556223 0.19332038596097 0.19213206624199 0.19079785247806 0.18910783872059 0.18696097781084 0.18442087439215 0.18141146078371 0.17788018800247 0.17380100946316 0.16915945996806 0.16386758277432 0.15801136851347 0.15157997454042 0.14472126207252 0.13738316144028 0.12955745056135 0.12117788090254 0.11234041866296 0.10311591561005 0.093476471345047 0.08337540417484 0.072850715892533 0.061704309920754 0.049907594501968 0.037648196190855 0.024902375386718 0.011594271895571 -0.0021758780157079 -0.016449015425179 -0.031658202353814 -0.047711657885267 -0.064441617860583 -0.081739589774466 -0.099814664777126 -0.11897162671313 -0.13917843160844 -0.16023932605001 -0.18213624115871 -0.204944478176 -0.22919530938541 -0.13185488479016 -0.10525240073625 -0.080385465642166 -0.057159677529328 -0.035439503772141 -0.015149818329464 0.0037065780752892 0.021189145813409 0.037420986525939 0.05242660687234 0.066193994104244 0.078719534508598 0.090169068858068 0.10058171834049 0.11012356156847 0.11888044949592 0.12683334410013 0.13412451534808 0.14074993989231 0.14681491408459 0.15238652102641 0.15752188696073 0.16223438995675 0.16667634852363 0.17075877212108 0.17457768344465 0.17808526507737 0.18125484243153 0.18410653318206 0.18686589792346 0.18941417190943 0.19187484831624 0.19430433631841 0.19660792696595 0.19871759057091 0.20076090708799 0.20286552399931 0.20490530239944 0.20681577035099 0.20862970502156 0.21031004962016 0.21176834982595 0.21296961748235 0.21395270089497 0.21487687054901 0.21561874815605 0.21600487608231 0.21606309656867 0.21583021907206 0.21532465863429 0.21464415252891 0.21390305178234 0.21321124129714 0.21258563874224 0.21206238409175 0.21171383363248 0.21130612234632 0.21077192692451 0.21016962124684 0.20950064898439 0.20854307680622 0.20741869758564 0.20614056068694 0.20449853614355 0.20239612899294 0.19988776838729 0.19690547032575 0.19339776775413 0.1893315008628 0.18468589146295 0.17938138363022 0.1734932985158 0.16703016219763 0.160131190639 0.15276839994597 0.14488815058036 0.13645785703153 0.12754701351652 0.11824994903117 0.1085417878443 0.098373766173601 0.087771072903425 0.07655052311925 0.064655601567127 0.052287246714734 0.039432503418723 0.026013160090269 0.012121453329462 -0.0022785551505861 -0.017629485841987 -0.033838216501756 -0.050738092946342 -0.068210012596573 -0.08646290361219 -0.10582003224231 -0.12624593836486 -0.14753196613494 -0.16965677182174 -0.19268762988117 -0.21716972622093 -0.1196115848542 -0.092741876156733 -0.067628646581496 -0.044177145515226 -0.022248736951268 -0.001772408076986 0.017243794891521 0.034876967253049 0.051252827243399 0.066377232441031 0.080245228185987 0.092866178600257 0.10439632481409 0.11488438462693 0.12450430051148 0.13332256046818 0.14133412860169 0.14868330786384 0.15534841420331 0.16146325331323 0.16707909186073 0.17225023141146 0.1769996979655 0.18147613685107 0.18558871324247 0.18944123569706 0.19296540146374 0.19614826036741 0.19901458995235 0.20178822371504 0.20434624141414 0.20679640538362 0.2092224267873 0.21152991793271 0.21364885095514 0.21569472778889 0.21779249736694 0.21983323510427 0.22174093964039 0.22355581238599 0.22523681477909 0.22669356985219 0.22787649092937 0.2288470255543 0.2297608878316 0.23050008114371 0.23089695871637 0.23096133367742 0.23072476276654 0.23022352693801 0.22955272086031 0.22882915376954 0.22815309720597 0.22756282980482 0.22706426094451 0.22675431289089 0.22640221399976 0.22593263535042 0.22539242082168 0.22479658588943 0.22390203067356 0.22283359913795 0.22160904781407 0.22002391624653 0.2179674506724 0.21549840867507 0.2125435368017 0.20904925681232 0.20499411483719 0.20034536998466 0.19502810852097 0.18911130138277 0.18261549583318 0.17567058616022 0.16828498645575 0.16035252771156 0.15187954241797 0.14289224700996 0.13352832854697 0.12374217976388 0.11350595050694 0.10282393409102 0.091534154038373 0.079547882252077 0.067062135470823 0.054098254996724 0.040563095311707 0.026551485841202 0.012021287569884 -0.0034688925090073 -0.01983824509832 -0.03690646748724 -0.054557839765298 -0.072987717714263 -0.092545971145967 -0.11319689732715 -0.13471098079348 -0.15706217230856 -0.18031805025329 -0.20501657119389 -0.10729123892038 -0.080131140628507 -0.054766223507629 -0.031086587557251 -0.00894456608385 0.011717055098119 0.030896084065592 0.048681409239853 0.065199139926113 0.080443201106 0.09441223646295 0.10712830429268 0.11874110123345 0.12930188095655 0.13900223441223 0.14788059639958 0.15595578628837 0.16335536471339 0.17006753872313 0.17622942943403 0.18189407240927 0.18709814040768 0.19188951027572 0.19639470717172 0.20054003902455 0.20442305393964 0.2079722474811 0.21116387753374 0.21404624856915 0.21683647196061 0.21939661205327 0.22183771851982 