# vtk DataFile Version 3.0
d-3__ created by libgimli-v1.5.0-1-g5991b6ac
ASCII
DATASET UNSTRUCTURED_GRID
POINTS 1483 double
3.3802423101098	12.435481574566	-0.57001420684378
3	12	-0.2857142857143
3.4959596309848	11.998298039034	0
3.2490070092203	12.168560129388	0
6.0395510135596	13.367156253372	-1.2757999763971
6.5930002103947	12.023472734859	-1.2922192071349
5.4998599382803	12.552571297657	-0.59337769664261
5.29662096318	11.932351047571	-1.5392209346082
5.6153020589615	9.1440579133635	-1.0774777831171
5.7237069713611	8.5589744845549	-0.30827017969781
5	9	-0.2857142857143
5.3151026533923	8.4249591108801	-0.38240156963578
2.3178923476779	4.1926464382665	0
2.5373292327812	4.4716333182052	-0.48281884804687
2.3342974478463	4.0018571812202	-0.30572640106363
1.9994701911036	4.4258543307655	0
4.8968211033092	12.507755029533	0
5	12	-0.2857142857143
5.2932790228536	12.494788035524	0
0	0	-0.2857142857143
0.54768630893449	0.55020446432687	-0.60775225926193
-0.16846798780902	-0.24002860812406	-0.65332445545953
-0.28063481777066	0.41453578455018	-0.44890469943706
7.7	3.575	0
7.3102059000399	3.7470939102263	0
7.7	3.6732286664853	-0.53772532608145
7.3176226410905	3.2857280588852	0
-0.7	-0.10798167686939	-0.47517111104905
-0.7	-0.57707899562378	-1.1376990549501
-0.7	-0.61986630133594	-0.43486724047509
6.3962361866998	10.611290418241	-1.3182185489848
6.565939673393	9.5694509864085	-0.57379796778735
7.1295911592009	10.496363016677	-0.48219980545192
6.3839624611364	10.341052129245	-0.35036617584397
7.7	14.3	-2.5
6.7623683783591	12.987112326146	-2.233077027779
7.7	13.059020885286	-3.3539705522597
7.7	13.327367479896	-2.129915020979
1	6	0
1	6	-0.2857142857143
0.93236760237426	6.49128333619	0
1.3454573625665	6.353105459937	0
2	5	-0.2857142857143
2.1684298754346	4.7403793023811	0
3.0226729813355	8.4836106439452	0
2.5164096947204	8.910651700233	-0.41109082170818
3.4071201441719	8.4167381876838	-0.59109415332551
2.5374808587914	8.1383747261781	-0.35604109466584
6.2778911301719	14.3	-0.61136458754231
6.2225356773765	13.691717475418	0
6.5208076177088	13.495118289851	-0.49928801204061
6.7358646795693	14.3	-0.39005656748015
5.7965188279432	13.281940723964	0
5.5320359851605	12.925291312368	0
5.353113789845	13.264183036004	0
5.5919457801018	13.101154188917	-0.33537516396337
7	10	-0.2857142857143
7	10	0
6.5010306427949	10.010760669106	0
6.8196744207924	9.5136576917357	0
7.7	1.1375	0
7.7	1.6430719769933	-0.42557297445049
7.1939383721229	1.4724531054162	0
7.7	1.625	0
6.3572581294301	1.4772201134971	-0.96507376287322
6.5574763981385	0.84898833643366	-0.48332647821142
6.7774291048203	1.7003141153393	-0.4123635555875
6.1433933962903	1.4220674799247	-0.28622251631329
-0.7	9.1984657118068	-1.9278839451739
0.33291529395702	8.3305676904572	-1.2970017952003
-0.7	8.1442617177323	-1.0898260028896
-0.7	7.644268062563	-2.0766032868031
4.508194357046	8.6258793740749	-0.60770874662543
5.0095189690676	8.5009469809039	0
4.7609249278557	8.7686419230913	0
6.2306672701993	2.67753718	0
6.6360398560532	2.4670661479797	-0.44686919005428
6.4910302172834	2.4939022421641	0
6.1550873755842	2.4572757142813	-0.33684154297057
1	1	0
1	1	-0.2857142857143
1.4901571161019	0.99574153349402	0
1.1736530561382	0.72346383359363	0
2	4	-0.2857142857143
2	4	0
1.6440539242474	4.1532454240512	0
7.7	6.9501255673919	-0.74418826283982
7	7	-0.2857142857143
6.7521552376889	6.497772044976	-0.66059363300197
7.7	6.3887218416049	-0.46884913673037
5.9482896260331	7.5800048202495	0
6	8	-0.2857142857143
6.3095291646476	7.6896230263426	0
6.1432247512519	7.3579252770212	-0.41388970597853
3.501272057481	12.437082442362	0
3.3297831413816	12.805427976196	0
3.6823393063421	12.851671876304	0
1.3671388209093	10.633374397873	-0.4152980605108
0.95248763025238	9.835503527633	-1.7808732395437
2.3518021577517	10.495200039554	-0.50930668321109
1.5373497846005	10.021005779616	-0.41781002197689
6.2054585007625	14.3	-1.3884356875417
6.9442913034148	14.3	-0.89278753613404
1	8	-0.2857142857143
0.54167473049383	7.7707286368021	-0.37916050195481
0.44975345341211	8.3808810318019	-0.31136669048163
1.022076618805	8.4121844676845	-0.45670843222423
0.89173681858685	4.6122796653579	0
1	5	-0.2857142857143
1.2386083631299	4.6841794176855	0
1.3923592539172	4.7130963353432	-0.25978315417498
6.4242299347383	5.6840176993625	-0.35514079575845
6	5	-0.2857142857143
6.3424541740313	5.2754910113697	0
6.0447933133998	5.5049876953384	0
5	2	0
5	2	-0.2857142857143
5.5190673049038	1.9208326821789	0
5.2306444928855	1.6547875838902	0
5	13	-0.2857142857143
5.257359886178	13.540476325965	-0.63012071696907
0	6	0
0	6	-0.2857142857143
0.066757795936057	6.5008369551487	0
0.29243888553297	6.1743316976873	0
7	9	-0.2857142857143
6.5033796411008	8.9981073418213	0
6.5607922823332	8.4440251373986	-0.63122800754088
6.811726958696	8.7028726276344	0
7	5	0
7	5	-0.2857142857143
6.4986646723997	4.9192017057136	0
6.7141996182955	5.3303468264748	0
7.7	9.5988491781319	-7.4736716195817
3.1507199964473	10.394874003632	-10
4.8663216648816	7.3792654266676	-10
5.1015502438684	11.553440122249	-6.405163284031
7	7	0
6.9589015254993	7.4884372736447	0
6.761634669635	7.2408783569561	0
6.0574437090791	0.20878539066113	-1.8779478182653
4.9838025543493	-1.3	-2.1179854334408
6.0308685444023	-1.3	-3.5425074203685
6.440522236286	-1.3	-2.0103523001383
3	2	0
3	2	-0.2857142857143
3.0105846506	1.4855923993349	0
2.6480485575569	1.6700894103009	0
5.0527203000088	13.535479310798	-1.5373151531841
5.0246691847863	14.3	-1.036131499603
4.1300067609037	14.3	-1.2024507502556
4.4744197407865	13.547407617085	-0.63586628370479
2.5813517996865	9.6286485974984	-1.0236151505326
2.2955236368793	9.5881134365907	-0.29154811067367
3	10	-0.2857142857143
6.4248505083522	12.522044346884	-0.42559946143008
6.465073985677	12.51782996062	0
6.1644652963082	12.36965297069	0
6.3832046574853	12.135664356038	0
2.9908655166747	12.498069465114	0
1.984703560175	7.5906357794687	-0.50777967523709
1.0508409188237	7.354634772545	-0.95680796450018
1.4515039911109	6.5829264157992	-0.56173008002516
1.3866216751759	7.5118935788728	-0.35488362790971
2.45	14.3	0
2.2168273415577	13.627179222019	0
2.4554693735383	13.497784276817	-0.39727655195048
3.032551925238	13.762466584345	0
6	11	-0.2857142857143
6	11	0
6.4843452951013	10.966514281357	0
6.2440599782187	11.234710090977	0
5.5	-0.5576923076923	0
5.247952850371	-0.29481663567353	0
5.5452342683804	-0.096294524539033	-0.49623355575102
5.1016398375367	-0.61489919294387	-0.38960315167385
2.3232496140345	4.0110297188843	-1.3835068702753
1.6586320571652	5.8268322896535	-1.5213554090482
0.71002746520551	3.976198472286	-1.505315421377
1.3296414347056	4.9089994064226	-0.82629172929831
5.6	14.3	0
4.6510156691765	14.3	-0.56274723813486
-0.090060726359069	5.5363033123106	-0.44581840212762
0	5	-0.2857142857143
-0.38456492153953	5.1805342841446	0
-0.7	5.0205501441189	-0.32507149572551
3	13	-0.2857142857143
5.1848675157348	3.2965660830064	0
5.4046165570399	2.9501485228537	-0.43988698776777
5.486289771732	3.4981838484395	0
5.4682750147717	3.0660382780841	0
0	8	0
0	8	-0.2857142857143
0.5178658825659	8.020802151125	0
0.25864598874121	7.6639427314904	0
6.7098208972434	7.2950601162224	-1.3269022195366
7.7	7.949747446039	-0.91833665053736
7.1577047253729	7.4844276204668	-0.64272934527953
4.5892004575887	3.5369189576522	-0.55981654583505
4.4420188491858	3.4660037233365	0
4.711527897636	3.7375259681419	0
4.3494632088922	3.8023533541114	0
4	6	-0.2857142857143
4	6	0
3.9913416390327	5.4988534517732	0
4.5093195747582	5.724109532591	0
1.4	14.3	0
1.5	13.55769230769	0
0.89284349994875	13.714781914708	0
1.2292962491126	13.670420041977	-0.37788942865261
4	9	-0.2857142857143
4	9	0
4.5502440226935	9.051086551406	0
4.2963154051231	9.3907765114078	0
4.5321110402369	7.5028925212181	-0.60552533206341
3.5085861108931	7.3893844432383	-0.64873189634878
4.0050480592533	7.4977657988521	0
4	8	-0.2857142857143
5.8961095330637	-1.3	-1.0125722125019
4.8982045728458	-1.3	-0.82217786726149
5.2296982103621	-0.31621891710017	-1.0679345669244
4.9010483556055	1.478997710586	0
4.5631533182214	1.9074133665015	-0.41231302454656
5.0320642355688	1.4518180616801	-0.36509190625555
3.5357179442866	0.46434418042464	-0.60031716899974
3.9407498163335	-0.4411178910574	-1.1087857494349
3.2826824657074	-0.47747544834602	-0.50866572047373
2.802260468126	-0.22902113419037	-1.4542342115515
1	13	0
1	13	-0.2857142857143
1.1191337005982	13.329221525091	0
1.4884720276527	13.02962190928	0
-0.21681247778723	8.5792000107362	0
-0.35118339610893	9.0917088673227	0
-0.7	9.0968147603684	-0.35256881313688
-0.7	8.9375	0
0.51662331659314	-0.40156299802931	-0.67799391089861
0.13474046208011	-1.3	-0.85683826964205
-0.16941603187845	-0.57512411281067	-1.4019543009948
6	13	-0.2857142857143
6	13	0
5.8068477026831	12.499749736815	0
6.1890713266052	12.67695534294	0
2.5984255358496	5.4578875982232	-0.67264342113488
2.2172109403706	5.4325217687574	0
2.4824672258873	4.9705265694472	0
2.6598112065826	5.3330483814808	0
-0.7	0.5146532048839	-0.51418317722913
-0.7	1.0492756199945	-0.88024243711367
-0.37698118088761	0.89350663208132	-0.33360419980628
-0.25096134668857	0.95145340086689	-0.90448711690516
6	2	-0.2857142857143
5.4002158317804	1.7678073061348	-0.50898482673054
5.8183999242367	2.5164331321023	-1.0840550371572
-0.13917028340788	5.5182991349521	0
0.31578338747353	5.7567158690792	0
6	12	0
6	12	-0.2857142857143
5.513035862904	11.994753403328	0
1.5285536174902	4.2362319729344	-0.43851980589517
0.57100063419133	12.499134596467	-0.56842257570583
1.2565986295401	13.42724014175	-1.149557674079
1.4486633887383	12.69302170761	-0.31714242590465
6.65	-1.3	0
6.903739311401	-1.3	-1.0953527719967
6.3980205255852	-0.38130956989248	-0.5855507841991
7.2175457166608	-0.5710098692386	-0.51938212652516
3	7	-0.2857142857143
3.5055774955602	6.7395375676091	-1.4094768265058
2.383927159844	7.4535505157878	-1.0620490471275
1	4	-0.2857142857143
1	4	0
1.2222221827385	4.2954008280594	0
0.82345085295407	4.2815033897546	0
5.6	-1.3	0
5.790373644402	-0.65252487431205	-0.38521635467031
[...]
CELL_DATA 5483
SCALARS Coverage double 1
LOOKUP_TABLE default
1.497449439719 0.735058422255 1.3914724811894 1.5614106295249 1.4358335600124 0.86511044504342 1.1291363533275 0.65368732328374 1.0977233832679 0.19854456755157 1.8288625638129 1.6491697338065 1.4853144548255 0.71115810609754 1.2434904954642 1.7782300217144 0.96642683586944 1.1298949512244 0.59695687486037 1.6385755835522 1.4314804512302 1.6936072695831 1.8777844668089 1.0498220078637 1.578076863675 1.3856659248553 1.2396431057319 0.57136598646011 1.3003381358002 1.6390254512851 1.5457967633974 1.766817617914 1.2006651591389 1.7789205104658 1.4685774662815 1.7622978572053 -0.39476051418703 1.7872910981273 0.24155289514261 1.7695861132173 0.60984631254548 1.3707971182944 1.3806126893077 1.4564943644244 1.267392134627 0.89008268285511 1.8165846840073 1.0291859977982 0.9315968966295 0.55794185553936 0.67736881412425 1.2629848135973 1.3738491728673 1.5101737021375 1.3379246971123 0.9399475470443 1.436614535135 1.8329082133509 0.85532853684394 1.8251226912678 1.5071613882953 0.60485368748756 1.4178328545927 1.5182990835083 0.70550158807372 1.5776822872651 1.1288011411785 0.62435717753068 1.7002623490087 1.555845955973 0.81884024437026 1.0766329318737 1.7646284033879 1.6849789896337 1.5268135060941 1.0309488348027 0.61467018916729 1.2547182479635 1.925846115099 0.62739501564337 1.1553716392839 0.78868210476219 1.4954319370166 1.2126879543705 1.4983936568123 0.98240225776745 0.59822438783718 1.8579059154406 1.7587640250845 1.5511241705616 1.1558952982095 1.19674216729 1.2573041781907 1.2144798070244 1.4557386061288 1.6109549187003 1.5830434835736 0.96897106227151 1.6319111598874 1.6541586538735 1.2934150540854 1.8011432122129 0.94055718594281 1.5955952372928 1.0797244014754 1.5281812669713 0.30364697787987 1.1120778262429 1.7799203282768 1.8702160247849 1.560312593522 1.2892501116212 1.4641452441902 1.401126428728 1.1541561820923 0.73780208712181 0.93735651539166 1.0129803474054 1.5576648007377 1.1938838225054 0.95013059736172 1.6039071217289 1.2356549277893 0.41529402250739 1.2294000430362 1.7756940518163 1.0468771908379 1.8003788973985 1.3283077788589 1.5180730626019 1.4916938214248 -0.22776499898349 1.0558024856176 1.3928037566757 0.80729964635158 1.5795704473003 -0.42158872221352 1.3421573899337 1.329092545552 1.8610086604113 0.54619563526734 0.14647011325467 1.7713596099872 1.6797894386435 1.4990730807776 1.4153577621991 0.85552231000336 0.65987086203517 0.90196804450086 0.58932682620338 0.36407019556154 1.849267942782 0.80737049734709 1.1969880537834 1.3776716363815 1.6360037898 1.4459852545755 1.0504712772492 1.7290551737374 0.77609573678192 1.430840775733 0.71828429663816 0.92013275826174 1.5711661470756 1.8592146985109 1.6341492578425 0.58809146083592 1.7949026078216 1.4221377732576 1.8003393501774 1.583271942711 1.1712637043258 1.2503484563194 1.82251103811 -0.096365764306497 1.8562981521572 1.9000846515284 1.7584807943067 1.6883565241111 0.16222415713401 1.5444525676752 0.38696301412032 1.1145080405554 -0.099680055629116 1.2188540661756 1.8479329093426 1.400161832668 1.5582016525552 1.820492738135 1.3257519422706 1.8426441900534 1.31767406836 0.73267459374005 1.5887785951264 1.2569324075576 1.0658098027008 1.6414280827554 1.532130124277 1.394861624177 1.8611596762995 0.51824903026013 1.8937183251452 1.4118354953073 1.4925405882981 1.9111074516083 1.6544840988339 1.7131722808412 1.4618588563978 1.0661853911017 -0.45658115557401 1.3770863522934 1.0711945653742 1.1721407085393 1.8832237093095 1.8498054307074 1.8612802931017 1.8465598443814 1.5964464201594 0.85280668411955 0.84597550830044 1.3699363125492 1.7186185267974 0.54267335628925 1.8661902086966 0.71276962635143 1.6832827844184 1.5318234476763 0.85130111805745 1.9221242897614 1.1505139536739 0.91749398395909 0.87747944396235 -0.15727561479137 1.8559442321137 1.4353246355015 1.1583098053307 0.54775438611359 1.7455937592527 1.5571867562439 1.5327000417986 1.7643807884393 0.69828868842895 1.5836358439046 0.95674072367736 1.5696000099226 1.8419478782772 1.3209704671278 1.5258116818191 0.51230801960009 1.6060128999694 0.68307600256913 1.6739377636299 0.45095064465592 0.20474248430771 0.0074009480789818 0.44656646396327 0.87129274913423 1.8578214804782 1.3060479744954 1.8695709455378 1.0365596526638 1.0474369652536 1.4181857387958 1.3442548200484 1.7516378127289 1.8284576334295 1.4485663559439 1.8586624604717 1.529763342358 0.7186224620437 1.8531878020995 1.8886410573476 1.5542758393348 1.4179291505483 1.8361750185184 1.5490779640982 1.850595888846 1.5788940879422 1.5635268171171 1.7246404285221 1.6334513562372 1.926748828991 1.4253120026216 0.52505817474653 0.50199826261313 1.2678495739036 0.95406584274683 1.58451130605 1.7435439119787 1.3049134099692 1.5307014681254 1.8451118710507 1.721347874226 0.5611672411327 1.4142585949489 1.6907429817771 0.71968089241352 0.26197032775516 0.83268386878259 0.50158173128076 0.44611045375818 1.5610946525142 1.3975056097132 0.99189281821615 0.80909873906465 1.1000654416433 1.6095647998439 1.3006222303429 1.5290461702901 1.1127248917404 0.72964579918352 1.5765337759174 1.2599108421827 1.2516549446252 0.63169557113489 1.1527430531789 1.5157361548172 1.0715392389741 1.437090486821 1.1484854043184 1.8134270575291 1.495462509867 1.5245660504165 1.4060505144635 1.9055941450353 1.256262909144 1.6971986846715 1.540708548568 0.45844791411806 -0.63759414585438 1.6215028568621 1.1964146059944 0.72465015841851 1.526554907339 1.451708880049 1.7967561567433 1.8740250531015 0.94594264736783 -0.58964503099269 0.8397869981963 1.4110695805179 1.2147660979128 -0.25617530618977 1.0338584118541 1.0475280551452 1.4165845014637 0.86559232457289 1.5423519181667 1.3637394660348 1.2346105263747 1.5249057190694 1.7163277064984 1.7832968747728 0.59606778956594 1.8758300826741 0.99555837212005 0.10553219837155 1.3028387262902 1.7003380298753 0.47641148993961 1.3051909483163 1.3650734864797 0.70453425183283 1.3734745761413 1.7420565531051 1.4681127965632 0.86738896697867 1.7693949536114 1.673825751138 1.2053355554837 1.3165422631262 0.96686414409689 1.4687855991663 0.26646333567441 0.57502326158909 1.1382964389406 1.2905260935394 1.5186997119416 0.76040391322302 0.32546833842713 1.8262003098218 1.8834600738828 1.9022979771437 1.5899707107779 1.3383773720517 1.8523932917032 1.8053901815933 0.57261878737809 0.83131995466996 1.5221260910103 0.99144188436972 -0.23394579415871 1.5878368639074 1.4022380534528 1.368121627043 1.579743810503 1.5986624826508 1.4648746573206 1.3866928981205 1.5383173533535 1.0446183683018 0.8307588911457 0.82345544952153 1.7561446760062 1.9185865860613 1.2324537611508 1.3407102241399 1.7188491080333 1.8451586447424 1.2747807968096 1.4314800203995 1.5074598447414 0.64707729060084 1.8149338960389 1.4057447394082 1.439580561654 0.92307752546033 1.5552262936886 1.8431730399306 -0.40164326316601 1.5473849258081 1.5191942124843 0.51936047092643 1.3857656146292 1.3525537817878 1.0364884710055 0.19180498520377 0.11396821747584 1.579299459729 0.30114347300376 1.6825533205618 1.2620106911589 1.8165212177568 0.8723247992056 1.7418149305432 1.4023941840061 1.7334877431859 1.7949440253513 1.4015280414058 1.195332141519 1.4232115952875 1.5653080580484 1.2655998646772 1.7294046944397 1.8255473081253 1.5588721058779 1.1318188249585 1.2708415215232 1.1962504340594 1.2354689216689 0.90212205745999 0.69239261807329 1.4489132526995 1.5179978576855 1.6056772879723 1.4534296495371 1.8793030548322 1.3691097160849 1.6885804616516 1.4914766781619 1.8833080134449 1.2314012901707 0.98559666398103 1.5902481121837 1.9068849556365 1.4866647157815 0.86492105495846 1.3409968283452 -0.25432223908379 1.8421978868423 0.4478151216495 1.7947023305056 1.4723576941969 0.22547672192087 1.5533466677855 1.3050912941382 1.0637496886998 1.4930039153077 1.7197070463928 1.840248658394 1.4288946908534 1.4342672286873 1.8024648845185 1.6312198363045 1.3648783609755 0.70074295730294 1.5811162530411 1.544779364534 1.5224529098294 0.65039621772381 0.43277230633805 1.428127697196 1.2233325533259 1.4946669293911 0.82599896076921 1.8486672842093 1.4425798546171 0.8116130305393 1.920926437224 1.4232201357836 1.0422734138607 0.62558435522637 0.82129170526163 0.98120973418504 0.51622625460388 1.6962339702732 1.5880554446991 -0.031362013463655 1.3142766673781 1.1540003275716 1.4423042180743 1.3497912627805 1.5282594628187 1.5054223964833 1.7960951819768 1.0310064975759 1.5789865922136 0.74032268692916 1.0684095133688 1.3784961798063 1.5822531661203 1.0908851719664 1.7752373717627 1.6078038918014 1.3048418319988 1.5831715988943 1.4262314969069 1.6677905739397 1.5597175172705 1.5985234676966 1.5606151350223 0.39978744707646 1.3042475838765 1.4255072430621 1.8108431431503 0.76471516628584 1.7872605313518 0.75538945067356 0.88046702441857 1.3276847458105 1.7840435531219 0.8557332594588 -0.70965464292612 1.2579430136443 1.525615388797 1.2615613492533 1.6890676665657 1.4641362994952 0.64898407924631 0.80992462646762 1.8199466051974 0.92211760718784 1.5830033323033 0.83244242048397 0.5922219655892 1.3503615828282 0.5622120647747 1.5545285729404 1.5834949182844 1.5283839844069 0.016508886094142 1.1027446386875 1.6937795086667 1.1921426804663 1.5212965339163 1.4232866744063 1.38425103848 1.4387179700729 1.0576326544982 1.5850304065208 1.5384007141335 1.0124293784147 1.0822136055199 0.23650264524336 1.8792712056553 0.91258842941483 0.32504228779772 1.7387518185423 1.3249620946038 1.6141573341401 1.6910317649363 1.6753177091113 0.63477676174991 0.84556351677758 1.5898536066754 1.384689501031 1.6585198472759 1.136307473533 1.4745590387441 0.75314275417892 1.0518173346149 0.82680050398773 1.5043454206718 1.2322932861676 0.6664250382962 1.8577356545069 1.6416107122427 -0.57117692803922 0.11679054040574 0.88709183486341 1.6196902700708 1.555537825556 1.5353419753028 1.8337634646492 1.0863140546678 1.4277535064782 0.59679801656155 1.6775881390489 0.34890543868807 1.6746699862132 1.0941147938079 1.5726166625509 0.89707654824894 1.5857988084873 1.5009350815644 1.3486229716981 1.428751146518 0.34155138393728 1.8631423135019 1.1356027110178 1.4945685132356 0.44091184232233 1.4474551408885 1.5596025248677 0.94303095572484 1.3375643238434 0.86079615406731 1.6898194597997 1.0744322599157 1.4704523020753 1.3772443028729 1.2598689183691 1.8595628163257 0.6719188291701 0.39645358959591 -0.56342381645707 1.7739701007473 1.1134911240943 1.0513455007851 0.74992158785607 1.8070401090373 -0.22074455187254 1.6204163611924 1.5632918315995 1.0827958955314 1.028570408854 1.7731650056949 1.8596137431594 1.4657793833904 1.5190309351307 1.789645306886 1.6845792090103 1.8424449315668 0.72826780181342 1.3401165689416 1.845903653706 2.0384854436594 0.6731350688615 1.4296460349291 1.3560931965889 1.4591971464139 1.5612622049756 1.5928374969862 0.60854628531167 1.7353003493058 0.67235894956075 1.1228068948295 1.4749439306137 1.9136878250171 1.1109949687791 1.4117017099213 0.095613945254318 1.6747510240581 1.6501507173771 1.1253192920853 0.26019565107134 1.3967631157317 0.69859586106658 1.6624127626335 1.1585897840434 1.517316254914 -0.38187150210583 1.4277682962398 0.65335543682817 0.75432647275048 1.8600259264014 1.271985954982 1.3003589911187 1.5342723446242 0.44750124570323 1.8710407642907 1.8515198608902 1.5121428417287 1.8240407379598 0.64497626337781 1.3570223124731 1.2911956619431 1.5166587443722 1.0231061504731 1.7869742234885 0.49177268200293 1.2594169559859 1.3771037643628 1.1745417103548 0.78984701001108 1.7713538816153 1.5476260435133 1.3329341321627 1.3538560098503 0.69344019370853 1.3830581090543 -0.43703898446654 1.5747428620069 1.0003493307127 -0.3085294011047 0.24148001500094 1.5337498533691 1.6687359450144 1.1027904754016 1.3693045408709 1.8502298397794 1.523997509939 1.0640715140449 1.6133085959108 0.91342032786992 1.1620730243044 1.4393848048365 0.9615110952817 0.33016000137609 1.2677915516919 1.4489542591822 1.8559329808077 0.74157143220092 1.6471722596581 1.5268565742129 1.4421193952307 1.5623239567853 1.5839432736324 0.18193288553797 0.97740122339939 1.3171715016509 1.0176144415523 1.2314258581836 1.1187480073297 1.7661962546112 1.0397520525091 1.2364384204064 1.4526218339406 1.7745680248804 1.7338568622498 1.7347205872012 0.62292236432967 1.8650096264032 1.4646782067034 0.73915587517961 1.1865613495692 1.4865607226686 1.439336995686 1.0947102652336 0.82889321286302 1.4433804547615 1.5315369437741 1.9150579223071 1.4212204462425 1.2954370650521 0.77137482296081 1.3991603854172 1.5505793493368 1.5770058472385 1.8155254710873 1.4018096307168 1.4933573634716 1.08332827173 1.5379642833573 1.5865421629943 0.81889019123018 1.8835783520206 1.3875632672214 0.55545578622754 1.5944195071451 0.86857355595141 1.5107445289825 1.2080393320638 1.7194147221809 1.1981946902226 1.2006394663549 1.5664931539991 1.1322633822262 1.6382381518054 1.8502748818149 1.3150153369693 1.6289924207392 1.4472566461714 0.46678677693218 0.98449206143256 1.7796250124717 1.7071340874437 0.0982778136471 1.5885766723556 -0.57968589921218 1.3832427280361 1.720882202242 1.2922043161776 0.60217646325093 1.7713829100557 -0.72523123941499 1.7204692022562 1.3186797628291 1.4304669778006 0.72242145453938 1.1681600444773 1.3802226685957 1.0331739514358 1.4513661446886 1.0637100331253 1.5684088484919 0.76188100121791 1.4098764020616 1.5063143971731 1.207228373255 1.3235278615419 1.5746218511048 1.5537159625797 1.4552228641295 1.0793584178039 0.61503404040174 0.74802546598548 0.60462762968519 1.5251297012852 1.5631293935741 1.575942313643 1.0657855433792 1.6748324280653 1.4921096630747 1.0887461347708 1.580981396555 1.4407019602194 1.5833706794801 0.49680735309165 0.95934834366587 1.594054100992 1.2659963104315 0.88851280163022 1.2873785884206 1.3429088469279 1.0489440097484 1.2744681505889 1.5236483245634 1.4945683951822 1.1918573311722 1.8588480858664 1.8180376289589 1.0717182571088 1.2886475162041 0.70986843188548 1.3351832457732 0.66219687787397 1.6367131036314 -0.22502079288861 0.65669286019448 1.5318872264783 -0.2998716840927 1.6504913474674 0.68374467480188 1.2820029205098 1.3036191389189 1.4158696093643 0.81568130883173 1.3959206894129 0.44229380384327 1.2417172678564 1.569594465103 1.267619548865 1.5321487226404 1.4817877929962 0.93996117389564 0.78951150112932 0.39108218170495 0.77626841643583 0.51066206032314 1.8211894476993 0.43539986371456 0.91988235427948 1.5173527258983 1.286986765933 1.5228871407177 1.6552819361578 1.4688215851167 1.573071048812 1.2232134724088 1.3786536947115 1.5140002006297 1.5337209596513 1.6865374727876 0.5399780863869 1.5620046391454 1.5537308115095 1.1590559407688 1.1397395930532 1.6423310123384 1.8879801262869 1.5969896525281 1.715340036117 0.65307513985346 1.2324846464148 1.810510741687 1.4820567837616 1.2800878024438 1.6611082462013 1.0033435008468 1.3685259722433 0.39354764646705 1.7405723077624 1.2439341380863 0.66670428798643 1.4585942187179 1.5060139989468 1.4093349948263 -0.180856715279 1.2792756548015 1.5733577646899 1.8575840917302 0.31425310480002 1.7666686089157 0.79962275448808 0.20189109596344 1.1659680374901 -0.49875490241582 1.6907001571418 1.8961891722491 1.4138790877855 0.99753534553521 1.4986804050083 1.703257059876 0.37375777078636 1.5810211768453 1.481916452451 0.20659920838767 1.4312381879221 1.3396376268569 1.6331973000853 0.94452326688185 0.51471985046455 1.4239214361401 0.60331477698287 1.2579940363825 1.8591448842995 1.3522232951038 1.498661151905 1.2869134597697 1.5972958847578 0.32863066565813 0.3767349209009 0.96614571807205 2.000076708095 1.1074740723299 0.60638682687531 1.5331512012063 1.5672056847694 1.0461142556038 1.3605389078064 1.2295333472902 1.3172632220463 1.5551304625105 1.481310933424 0.73198963558207 1.293300339542 1.3344138139772 1.5932601657614 1.8694993197362 0.58623565271482 0.84498629894596 0.46784424934523 1.5052239475362 1.3189486599528 0.77734504273654 0.98038320340544 1.7891094215964 0.48530944402064 1.1858954804511 1.0500105709583 1.2816738611244 1.7290674899471 1.2345020254198 1.1458665141417 1.7896638678535 1.8723549628135 1.5136251493813 1.7306644624784 1.5844875898451 1.2236923150982 0.78579474458963 0.73959192860941 1.4878840483059 1.0615020865298 1.1768373693277 1.4802986791338 0.73743336213383 1.6246666670754 -0.16104311547233 1.8062721531837 1.5960409272914 1.3561794540963 0.50823889936936 0.57251257018346 1.7408230039847 -0.04220966443963 1.1387683808716 1.2443301527503 0.59175226086387 1.139265455181 1.8226728697065 1.8167434880679 1.4777740169407 0.6625878520065 1.6993434886496 1.7496384446163 0.30205275454332 0.89388171868762 1.6272850466287 1.0026457057423 1.5515191585681 1.5351050269858 0.91730444828783 1.3763985801606 1.21117074421 0.71862939050531 0.63449268335337 0.60668712633043 1.7765566517429 1.8293956452263 2.4763558731765 1.5437412176174 0.86696730611243 1.3236517233691 1.4862861705804 0.92092623776201 1.4913160130657 1.7054990851768 0.49192457936264 1.743398642791 0.85342994775201 1.7296383370668 1.5068610652983 0.7398828709804 1.0856628807451 1.4990426911884 1.3957671728863 1.2330548290497 0.87634605337319 1.6311506651269 1.8039301010804 0.84677101702292 1.6808408125285 1.7338731482366 0.43009024276654 1.9745245607548 1.408406877319 1.1739964702975 1.0336278778078 1.1024600681835 1.5537843209117 1.469461084426 1.6993263340438 0.8707320505947 1.7898701903719 1.2650462229437 1.4081619862622 1.3294147819709 1.027380949456 0.63867378425215 1.882083063547 1.8058666127988 1.4319455295306 1.9066638871929 1.0475508340133 1.0255596576682 1.4978106235099 1.4879425027965 1.3434011913732 1.3491269190524 1.4912139309282 1.0438018437914 1.781077196208 1.8505052803021 1.4031016283651 1.0253867924944 0.7895843708381 1.416564484701 1.2615471565903 0.30679286443247 1.5586372842223 1.7117238808592 1.2794588880751 1.8627281883893 1.3468337533353 1.0545278799306 1.8678572812616 1.4862056339678 0.57207027825584 0.71671224771786 1.2846265567133 1.8421731756167 1.1734359308946 1.0068480779426 1.4477466291864 1.3077898040973 1.7145832547502 1.551156405519 1.2092946549577 1.302430538554 1.7165530422944 0.86977915715978 1.5993909221836 1.6095270089846 1.8732349624186 1.4628053723387 1.2715070354145 1.7588721123186 1.7365485021416 1.8071003389088 1.5160680351342 1.4525518156638 1.4602262616528 1.5931210453198 1.4554559402158 0.91906856856786 0.024119501794858 0.87350842882012 0.77071383834588 0.75032011275514 1.5795225888345 1.2225396932086 1.762763680447 1.2328238317921 1.5171039381935 1.2515148739076 0.5913779111598 1.7639954569772 1.5363204119833 1.6338215971053 -0.40522586193373 1.8444617572945 1.6011029042092 1.019995357853 1.8104150038479 1.1816078404833 0.90637531670846 1.561519825038 1.2884895647778 0.58242439658395 1.456109861603 1.1916493212399 1.0834969169262 1.7642972702882 0.93378715368692 1.5786316047321 1.3059773398937 1.3257952493594 0.9732063000608 1.776633209231 0.19963318485238 0.67792418483838 -0.52628337227025 1.3686500232052 1.4117657361569 0.78246262383748 1.0113578246677 1.5821144381636 1.6581956088128 1.3837241661127 1.6100007964198 0.87848354151021 0.85143109413812 1.8096054645874 1.7438478065092 1.4855136830505 1.561460416953 1.4416778368843 1.4081423740251 0.58477328347258 1.3715860209077 1.6639613013517 -0.16689289847062 1.2524613036048 1.8653944317134 1.4319177115634 1.3937407572994 1.2447506343004 0.85722863756434 0.43078591901642 1.5440189190651 0.72963488859523 1.3771235643736 1.375793032383 1.5260146478878 1.586650200077 1.7851776710705 1.8214498267709 0.29418894737464 1.454694321413 1.0908444471187 0.425625190264 1.806047208586 -0.51772445927271 0.54423379243831 1.2541809137295 1.7335085359572 0.86353532917136 1.4829968542138 0.54197306625709 1.4256342806408 1.0133552244408 1.2714769847542 0.95778594460646 1.0189316915274 1.869446915914 1.4301520970183 0.73191246147327 -0.11799566091804 1.0396517697754 1.3051076503254 1.5341976158561 1.5112118100675 0.94414418417287 1.8326326410655 1.3177414420518 1.4949649985769 1.449789087902 0.71374852890406 1.5433243438189 1.4994932447446