# vtk DataFile Version 3.0
d-2__ created by libgimli-v1.5.0-1-g5991b6ac
ASCII
DATASET UNSTRUCTURED_GRID
POINTS 257 double
19.5	-0.25	0
19.643267391024	-0.375	0
19.690940791558	-0.19094079155751	0
22.625	-0.27380702240065	0
22.625	-0.13804348840204	0
22.518663902413	-0.18940103023301	0
22.458333333333	-0.087886572211468	0
22.416666666667	0	0
22.375	-0.13804348840204	0
22.291666666667	-0.087886572211468	0
22.333333333333	0	0
22.25	0	0
20.083333333333	0	0
20.041666666667	-0.13804348840203	0
20.125	-0.087886572211466	0
20.166666666667	0	0
20	0	0
20.708333333333	-0.13804348840203	0
20.666666666667	0	0
20.625	-0.087886572211466	0
20.208333333333	-0.07357428207177	0
20.75	0	0
20.791666666667	-0.087886572211464	0
20.333333333333	0	0
20.25	0	0
20.291666666667	-0.087886572211468	0
21.166666666667	0	0
21.208333333333	-0.07357428207177	0
21.25	0	0
20.416666666667	0	0
20.375	-0.13804348840204	0
20.458333333333	-0.087886572211468	0
21.291666666667	-0.087886572211468	0
21.333333333333	0	0
21.625	-0.13804348840204	0
21.518663902413	-0.18940103023301	0
21.625	-0.27380702240065	0
20.583333333333	0	0
22.916666666667	0	0
22.833333333333	0	0
22.875	-0.13804348840204	0
20.833333333333	0	0
20.875	-0.07357428207177	0
23.98747163413	-0.5056358037932	0
24.050519698408	-0.25547676721966	0
23.843533331918	-0.29816134131379	0
23.458333333333	-0.087886572211464	0
23.404607252882	-0.15094638411797	0
23.541666666667	-0.13804348840203	0
20.5	0	0
21.791666666667	-0.087886572211468	0
21.833333333333	0	0
21.75	0	0
21.231336097587	-0.18940103023302	0
21.125	-0.13804348840204	0
19.705488373266	-0.59091608366499	0
20.007921013115	-0.8717186506847	0
19.91135296792	-0.47048281487414	0
24.166666666667	0	0
24.208333333333	-0.087886572211464	0
24.25	0	0
21	0	0
20.916666666667	0	0
20.958333333333	-0.13804348840203	0
24.791666666667	-0.087886572211468	0
24.833333333333	0	0
24.75	0	0
21.041666666667	-0.087886572211464	0
21.083333333333	0	0
24.083333333333	0	0
24.125	-0.07357428207177	0
22.541666666667	-0.073574282071767	0
21.375	-0.13804348840204	0
21.416666666667	0	0
21.5	0	0
21.458333333333	-0.087886572211468	0
22.583333333333	0	0
22.666666666667	0	0
22.226291378505	-0.21877391554365	0
22.432011579996	-0.40775209656411	0
24.148002764253	-0.18940103023303	0
24.208717134119	-0.38392172835888	0
24.291666666667	-0.13804348840203	0
22.208333333333	-0.07357428207177	0
22.166666666667	0	0
22.125	-0.072182208352023	0
21.875	-0.13804348840204	0
20.237940586216	-0.15094638411797	0
21.916666666667	0	0
21.708333333333	-0.07357428207177	0
22.083333333333	0	0
22	0	0
22.041666666667	-0.13804348840203	0
20.190375288162	-0.21877391554366	0
21.958333333333	-0.087886572211464	0
20.541666666667	-0.073574282071767	0
20.571273919549	-0.15094638411796	0
20.317063962986	-0.25702488420529	0
21.541666666667	-0.073574282071767	0
22.5	0	0
23.583333333333	0	0
23.625	-0.087886572211466	0
22.791666666667	-0.087886572211468	0
20.203594889612	-0.40391444725954	0
21.583333333333	0	0
21.666666666667	0	0
22.75	0	0
22.958333333333	-0.087886572211464	0
23	0	0
23.041666666667	-0.13804348840203	0
22.708333333333	-0.07357428207177	0
23.083333333333	0	0
23.125	-0.087886572211466	0
23.166666666667	0	0
23.208333333333	-0.13804348840203	0
23.25	0	0
22.165334880767	-0.15260258505374	0
23.291666666667	-0.087886572211464	0
21.731336097587	-0.18940103023302	0
23.5	0	0
23.416666666667	0	0
23.333333333333	0	0
23.375	-0.07357428207177	0
23.666666666667	0	0
22.086941669094	-0.2859797646022	0
21.958333333333	-0.18219221742147	0
23.125	-0.18219221742148	0
23.228873378537	-0.27753669533404	0
23.708333333333	-0.07357428207177	0
23.041666666667	-0.23876614697008	0
22.958333333333	-0.18219221742147	0
23.833333333333	0	0
23.875	-0.13804348840204	0
23.916666666667	0	0
23.791666666667	-0.087886572211468	0
23.75	0	0
23.958333333333	-0.087886572211464	0
24	0	0
23.483730629652	-0.25702488420531	0
24.333333333333	0	0
24.375	-0.087886572211466	0
23.369620976373	-0.40603607246707	0
23.604159114629	-0.34842263547806	0
25.124752694808	-0.11296503030675	0
25	0	0
24.958333333333	-0.087886572211468	0
24.041666666667	-0.13804348840203	0
24.416666666667	0	0
24.458333333333	-0.07357428207177	0
24.875	-0.13804348840204	0
24.583333333333	0	0
24.541666666667	-0.13804348840203	0
24.625	-0.087886572211466	0
24.5	0	0
24.43533056908	-0.18940103023302	0
24.916666666667	0	0
24.385963434616	-0.36114994877356	0
24.708333333333	-0.07357428207177	0
24.666666666667	0	0
23.636111778917	-0.20065391017952	0
24.999752694808	-0.25100851870879	0
22.731336097587	-0.18940103023302	0
20.851997235747	-0.18940103023303	0
24.737940586216	-0.15094638411797	0
20.523708621495	-0.21877391554365	0
21.133853031742	-0.25547676721968	0
20.949480301592	-0.25547676721966	0
21.041666666667	-0.52911283384145	0
21.041666666667	-0.18219221742147	0
23.357041954828	-0.21877391554366	0
23.737940586216	-0.15094638411797	0
24.690375288162	-0.21877391554366	0
23.958333333333	-0.18219221742147	0
19.875	-0.11303967622539	0
19.75	0	0
20.650397296319	-0.25702488420526	0
21.292050467453	-0.38392172835888	0
21.414390113348	-0.63321254312708	0
21.469144028345	-0.36097200963104	0
21.848127708251	-0.28948918465343	0
22.848127708251	-0.28948918465343	0
22.726596951268	-0.4234584073117	0
23.731548923005	-0.26700761442393	0
24.817063962986	-0.25702488420529	0
20.031958747178	-0.33325463579056	0
20.523689393121	-0.44776195923934	0
23.184065504659	-0.43422319923747	0
23.545209981036	-0.61464357222601	0
24.552290248164	-0.29580321144285	0
25.25	0	0
20.800529041383	-0.37028063139366	0
23.130694908432	-0.28024272799092	0
22.907115884997	-0.43487734236883	0
25.5	-0.5	0
25.5	-0.25	0
25.356886217184	-0.375	0
25.308843572405	-0.19115642759521	0
25.5	0	0
21.681768476189	-0.55823447719905	0
23.041897355025	-0.3545575021244	0
22.950100433703	-0.28398118611486	0
23.746371622197	-0.43057135368151	0
23.045779100149	-0.5143168838031	0
21.615347366628	-0.83560735755964	0
21.971649595913	-0.56775148091581	0
22.235269600634	-0.41546210057925	0
22.346412380513	-0.73751448832674	0
22.007726950717	-0.98664640296265	0
20.322202955504	-0.72835150504623	0
23.798122080496	-0.68908130839227	0
24.703430397599	-0.40445925111313	0
24.914859484231	-0.44990795630246	0
23.247599241801	-0.70334449364573	0
25.053928463665	-0.58159990549132	0
25.221377875989	-0.67457110982012	0
25.225195424337	-0.49586438948828	0
24.530720924191	-0.4852517756918	0
24.323984230706	-0.57992151527177	0
19.84485407481	-1.2957460393421	0
19.743909551686	-0.8528010586154	0
24.746070739038	-0.72060716412098	0
23.604860290622	-0.8788438191921	0
23.043947453281	-1.1807973577914	0
23.54268225478	-1.3246684327942	0
23.849430697053	-0.99522786547226	0
24.043693421774	-0.75311160759413	0
22.849047319116	-0.69970565535729	0
25.000856094841	-0.87446921301307	0
25.5	-1	0
19.845623228308	-0.30002188546398	0
24.512369350266	-0.71824350459	0
24	-1.6666666666667	0
24.051778272566	-1.3024535658708	0
19.5	0	0
21.680522574649	-1.2514855461386	0
21.375	-1.6666666666667	0
21.75	-1.6666666666667	0
25.174325422113	-0.32450830281231	0
19.5	-0.5	0
20.747329141204	-0.71351083399284	0
19.5	-0.75	0
20.348572023727	-1.2023161679924	0
21.179597305363	-1.0673000334922	0
23.25	-1.6666666666667	0
19.5	-1	0
24.75	-1.6666666666667	0
25.013091550828	-1.3141602648437	0
24.625304590967	-1.106556793762	0
24.375	-1.6666666666667	0
24.189043391347	-0.96114657873573	0
22.064690440023	-1.391571216678	0
22.426745644615	-1.201505510398	0
19.5	-1.6666666666667	0
21	-1.6666666666667	0
20.25	-1.6666666666667	0
22.5	-1.6666666666667	0
25.5	-1.6666666666667	0
CELLS 429 1716
3	0	1	2	
3	3	4	5	
3	6	7	8	
3	9	10	11	
3	12	13	14	
3	14	15	12	
3	16	13	12	
3	17	18	19	
3	20	15	14	
3	7	10	8	
3	21	17	22	
3	23	24	25	
3	26	27	28	
3	29	30	31	
3	23	30	29	
3	28	32	33	
3	34	35	36	
3	19	18	37	
3	38	39	40	
3	22	41	21	
3	41	22	42	
3	43	44	45	
3	18	17	21	
3	46	47	48	
3	31	49	29	
3	50	51	52	
3	53	27	54	
3	55	56	57	
3	58	59	60	
3	61	62	63	
3	64	65	66	
3	67	68	61	
3	67	61	63	
3	69	70	58	
3	4	71	5	
3	72	73	33	
3	5	6	8	
3	74	73	75	
3	73	72	75	
3	76	4	77	
3	78	79	8	
3	80	81	82	
3	83	84	85	
3	50	86	51	
3	25	87	30	
3	86	88	51	
3	52	89	50	
3	90	91	92	
3	93	87	14	
3	94	92	91	
3	95	49	31	
3	9	8	10	
3	84	83	11	
3	19	95	96	
3	91	88	94	
3	25	30	23	
3	9	11	83	
3	97	30	87	
3	98	74	75	
3	99	71	76	
3	100	48	101	
3	33	32	72	
3	99	7	6	
3	41	42	62	
3	102	40	39	
3	71	99	6	
3	97	93	103	
3	104	34	105	
3	39	106	102	
3	74	98	104	
3	38	107	108	
3	107	109	108	
3	35	75	72	
3	106	110	102	
3	34	98	35	
3	28	27	32	
3	111	112	113	
3	109	111	108	
3	59	82	60	
3	113	114	115	
3	116	9	83	
3	114	117	115	
3	50	89	118	
3	119	120	46	
3	119	48	100	
3	110	106	77	
3	120	121	122	
3	89	52	105	
3	101	123	100	
3	124	92	125	
3	54	26	68	
3	114	126	127	
3	101	128	123	
3	129	109	130	
3	131	132	133	
3	134	131	135	
3	48	119	46	
3	115	117	121	
3	136	137	133	
3	47	138	48	
3	60	82	139	
3	82	140	139	
3	141	142	138	
3	143	144	145	
3	122	47	46	
3	146	137	136	
3	113	112	114	
3	134	132	131	
3	147	140	148	
3	149	65	64	
3	150	151	152	
3	150	153	151	
3	148	154	151	
3	147	148	153	
3	65	149	155	
3	59	58	70	
3	155	145	144	
3	82	81	156	
3	145	155	149	
3	146	69	137	
3	157	158	152	
3	154	140	82	
3	147	139	140	
3	101	48	159	
3	149	160	145	
3	102	110	161	
3	150	152	158	
3	42	22	162	
3	157	163	64	
3	5	71	6	
3	4	76	71	
3	85	84	90	
3	116	83	85	
3	96	31	164	
3	49	95	37	
3	15	20	24	
3	25	20	87	
3	14	13	93	
3	25	24	20	
3	165	166	167	
3	63	168	67	
3	54	68	67	
3	17	162	22	
3	63	62	42	
3	35	98	75	
3	34	104	98	
3	26	54	27	
3	63	42	162	
3	88	86	94	
3	125	94	86	
3	105	34	89	
3	118	89	34	
3	77	4	110	
3	161	110	4	
3	111	109	112	
3	126	112	109	
3	47	117	169	
3	120	122	46	
3	38	40	107	
3	130	107	40	
3	121	117	122	
3	117	114	169	
3	80	70	146	
3	123	128	135	
3	134	128	170	
3	159	48	138	
3	134	135	128	
3	163	152	171	
3	158	157	66	
3	154	148	140	
3	151	153	148	
3	69	146	70	
3	172	44	146	
3	9	78	8	
3	161	40	102	
3	90	92	85	
3	116	78	9	
3	92	94	125	
3	5	79	3	
3	164	31	30	
3	19	37	95	
3	173	16	174	
3	164	175	96	
3	17	19	96	
3	53	165	176	
3	53	32	27	
3	118	86	50	
3	175	17	96	
3	176	177	178	
3	118	36	179	
3	78	116	124	
3	180	3	181	
3	169	114	127	
3	114	112	126	
3	134	170	132	
3	133	132	136	
3	44	80	146	
3	146	136	172	
3	82	59	80	
3	152	151	171	
3	64	66	157	
3	80	59	70	
3	64	163	149	
3	170	101	159	
3	136	132	172	
3	85	92	116	
3	124	116	92	
3	97	164	30	
3	166	168	63	
3	14	87	20	
3	87	93	97	
3	117	47	122	
3	47	169	138	
3	101	170	128	
3	142	182	159	
3	132	45	172	
3	149	163	183	
3	31	96	95	
3	162	166	63	
3	184	93	13	
3	97	185	164	
3	156	154	82	
3	141	127	186	
3	142	141	187	
3	44	172	45	
3	152	163	157	
3	163	171	183	
3	103	93	184	
3	53	72	32	
3	154	188	151	
3	189	144	143	
3	185	175	164	
3	175	190	162	
3	118	179	86	
3	125	179	124	
3	109	107	130	
3	126	129	191	
3	161	180	40	
3	127	126	191	
3	169	141	138	
3	141	169	127	
3	125	86	179	
3	180	181	192	
3	193	194	195	
3	196	194	197	
3	149	183	160	
3	143	145	160	
3	167	176	165	
3	162	17	175	
3	198	178	177	
3	72	53	176	
3	118	34	36	
3	185	97	103	
3	126	109	129	
3	186	191	199	
3	180	130	40	
3	130	180	200	
3	161	4	3	
3	129	199	191	
3	138	142	159	
3	45	182	201	
3	130	200	129	
3	192	202	199	
3	202	186	199	
3	129	200	199	
3	142	187	201	
3	191	186	127	
3	180	192	200	
3	199	200	192	
3	180	161	3	
3	142	201	182	
3	54	67	168	
3	203	204	198	
3	79	5	8	
3	78	124	205	
3	182	170	159	
3	151	188	171	
3	185	190	175	
3	204	206	205	
3	201	43	45	
3	43	81	44	
3	207	206	204	
3	57	56	208	
3	44	81	80	
3	209	201	187	
3	35	72	178	
3	57	208	103	
3	13	16	173	
3	183	210	211	
3	141	212	187	
3	45	170	182	
3	213	214	215	
3	205	79	78	
3	216	156	217	
3	45	132	170	
3	196	197	189	
3	218	56	219	
3	178	198	36	
3	188	156	216	
3	220	211	210	
3	57	103	184	
3	204	179	198	
3	165	53	54	
3	221	222	223	
3	209	224	225	
3	43	217	81	
3	226	212	202	
3	214	227	228	
3	211	160	183	
3	210	171	188	
3	226	192	181	
3	193	215	214	
3	3	79	181	
3	205	206	79	
3	186	212	141	
3	212	186	202	
3	173	229	13	
3	167	177	176	
3	72	176	178	
3	206	226	181	
3	213	227	214	
3	217	230	216	
3	196	195	194	
3	231	232	223	
3	227	213	220	
3	206	181	79	
3	187	212	221	
3	173	174	2	
3	13	229	184	
3	174	233	2	
3	234	235	236	
3	196	189	143	
3	233	0	2	
3	160	237	143	
3	237	195	196	
3	1	0	238	
3	173	2	229	
3	177	203	198	
3	198	179	36	
3	239	190	185	
3	35	178	36	
3	192	226	202	
3	195	215	193	
3	188	216	210	
3	220	210	216	
3	213	237	211	
3	154	156	188	
3	124	179	204	
3	221	212	222	
3	240	219	55	
3	54	168	165	
3	196	143	237	
3	195	237	215	
3	55	1	238	
3	167	166	190	
3	2	1	229	
3	1	55	57	
3	190	166	162	
3	204	205	124	
3	241	208	56	
3	242	167	239	
3	223	222	243	
3	156	81	217	
3	160	211	237	
3	213	215	237	
3	183	171	210	
3	228	193	214	
3	219	244	218	
3	56	55	219	
3	184	229	57	
3	57	229	1	
3	220	213	211	
3	245	246	247	
3	230	220	216	
3	220	247	227	
3	248	247	232	
3	228	227	246	
3	55	238	240	
3	249	230	217	
3	247	249	232	
3	166	165	168	
3	221	209	187	
3	43	225	217	
3	209	43	201	
3	247	246	227	
3	190	239	167	
3	207	204	203	
3	208	185	103	
3	242	203	177	
3	207	250	251	
3	240	244	219	
3	252	218	244	
3	224	209	221	
3	217	225	249	
3	43	209	225	
3	241	242	239	
3	167	242	177	
3	253	242	241	
3	56	218	241	
3	212	226	222	
3	249	225	224	
3	234	250	207	
3	239	185	208	
3	231	223	243	
3	224	232	249	
3	252	254	218	
3	241	218	254	
3	253	241	254	
3	239	208	241	
3	206	207	251	
3	224	221	223	
3	223	232	224	
3	248	245	247	
3	234	207	203	
3	250	255	251	
3	251	226	206	
3	255	243	222	
3	249	247	230	
3	220	230	247	
3	203	242	234	
3	235	242	253	
3	255	222	251	
3	226	251	222	
3	232	231	248	
3	245	256	246	
3	228	246	256	
3	242	235	234	
3	234	236	250	
3	255	250	236	
CELL_TYPES 429
5 5 5 5 5 5 5 5 5 5 5 5 5 5 5 5 5 5 5 5 5 5 5 5 5 5 5 5 5 5 5 5 5 5 5 5 5 5 5 5 5 5 5 5 5 5 5 5 5 5 5 5 5 5 5 5 5 5 5 5 5 5 5 5 5 5 5 5 5 5 5 5 5 5 5 5 5 5 5 5 5 5 5 5 5 5 5 5 5 5 5 5 5 5 5 5 5 5 5 5 5 5 5 5 5 5 5 5 5 5 5 5 5 5 5 5 5 5 5 5 5 5 5 5 5 5 5 5 5 5 5 5 5 5 5 5 5 5 5 5 5 5 5 5 5 5 5 5 5 5 5 5 5 5 5 5 5 5 5 5 5 5 5 5 5 5 5 5 5 5 5 5 5 5 5 5 5 5 5 5 5 5 5 5 5 5 5 5 5 5 5 5 5 5 5 5 5 5 5 5 5 5 5 5 5 5 5 5 5 5 5 5 5 5 5 5 5 5 5 5 5 5 5 5 5 5 5 5 5 5 5 5 5 5 5 5 5 5 5 5 5 5 5 5 5 5 5 5 5 5 5 5 5 5 5 5 5 5 5 5 5 5 5 5 5 5 5 5 5 5 5 5 5 5 5 5 5 5 5 5 5 5 5 5 5 5 5 5 5 5 5 5 5 5 5 5 5 5 5 5 5 5 5 5 5 5 5 5 5 5 5 5 5 5 5 5 5 5 5 5 5 5 5 5 5 5 5 5 5 5 5 5 5 5 5 5 5 5 5 5 5 5 5 5 5 5 5 5 5 5 5 5 5 5 5 5 5 5 5 5 5 5 5 5 5 5 5 5 5 5 5 5 5 5 5 5 5 5 5 5 5 5 5 5 5 5 5 5 5 5 5 5 5 5 5 5 5 5 5 5 5 5 5 5 5 5 5 5 5 5 5 5 5 5 5 5 5 5 5 5 5 5 5 5 5 5 5 5 5 
CELL_DATA 429
SCALARS Coverage double 1
LOOKUP_TABLE default
1.5279774660696 2.6065656203863 3.0012081569972 3.2905276261779 2.3549743923472 2.5992735487483 2.72697927003 2.7086141558963 2.5464637216035 3.1568447103059 2.79731290886 2.8472797440704 3.1532055397332 2.6018485203802 2.6839345325581 3.0743767180332 2.5822468119337 2.8542050500405 3.1540859560355 3.2892340472183 2.9733198109085 2.1795809270018 3.2199683874161 2.7728934766426 2.9841883076459 3.5361956059513 2.5948273677524 1.2865545153252 3.2524929121226 3.1915649278919 2.9929194775132 3.3416944780683 3.0220388023857 3.1562346706515 2.7859674944086 3.0569362522844 2.7679959392162 3.3846647356528 3.0289102797857 3.136654338149 2.4853404820387 2.4884007288208 2.9599383543261 3.0901723546156 2.2660590615919 3.1184132790892 3.0775633385243 3.4771157809553 2.2175085271038 2.9503740410723 2.561415789439 2.9767207056229 3.2393750876289 2.5167795239908 3.339143333069 2.4891837403668 2.8022596726379 2.157700893849 3.027422197833 3.3943098976442 3.0266672477112 2.7703793241773 3.3694937812022 3.0812881786884 2.952987883013 2.8865282598662 1.871390907218 3.0725370109484 3.3113613120741 3.3659272112753 3.385794608782 3.0381628345991 2.9063178900265 2.8637146071679 2.7281974102109 2.6327017170942 3.156900220875 3.2408994438554 2.8971104788045 3.5116279423301 2.7249649225088 2.9901019851437 2.9308913200794 3.3856173318446 3.3605776528909 3.3576322739059 3.2469379499639 3.5483882423915 3.1939169219814 2.6773054075709 2.9802977631452 2.6153028808235 3.1365211985639 2.6322502156729 3.1207100795095 3.3956574071142 2.909025474367 3.522590584194 3.44212602945 2.6190857361047 3.3866765988392 2.9188123528886 2.2866245508498 2.6668969450555 2.9065813363975 3.0046081784476 3.0249351300072 3.0064030880051 2.8138756362879 2.4933005132142 2.7961507055356 3.0805605939242 2.5238465781811 3.1034697871275 2.5531994059383 3.007083490526 2.9884158730394 2.3151821354641 2.3441086069821 3.4301149244397 2.8437663308347 2.7655695783899 2.9311455962746 2.8073768724543 2.4106418360611 2.7564355931865 2.9329981280809 2.7125557430303 2.605169004523 2.7867624515859 3.0164130128788 3.0049737667457 2.8399384920735 2.3365073473777 2.9843974898244 2.8827519777244 2.3075685634952 2.1335293552867 2.4680147761743 2.239246235872 2.6692610897857 2.921958017457 2.6185661123827 2.8556425367028 2.8366364994224 2.932161550753 2.7744191230137 2.6092839836256 2.9489472890636 2.7431458522998 3.0855909393573 2.7901879937895 2.998019034173 2.7704769963132 2.9146866783088 2.7061835172473 2.7528020780704 3.1153537817766 3.0373531510298 2.8648167860403 3.1645115385005 2.8012595843074 2.7682097922984 3.4172264205577 2.8610351733449 2.5989549683669 3.0703348378708 2.6236966645084 3.1011970759377 2.6335547528329 2.5930776671257 3.0324590277381 2.5833459101813 2.7404601766356 2.7461824902654 3.0019359491027 2.6573987992229 2.8818206816085 2.4203775927619 2.3490517512515 2.6986382884157 2.4640612264694 2.2516448029155 2.4968766039529 2.3209582153369 2.5565038553978 2.8190918562029 2.3811677756464 2.0693761048243 2.4944654318337 2.5540090032238 2.3420914927795 2.6250074664744 2.8211919799253 2.7855965697127 3.0329003570666 2.532384815561 2.7943449415109 2.77658469929 2.5896720681344 2.880204533595 2.723149714622 2.5316916322006 2.8258343076946 2.7480352092812 2.9173505570146 2.7604886088988 2.1351324835539 2.5372543971821 2.4155617695561 2.0251969702352 2.949702309033 2.5616049258447 3.0508668990786 2.397833368943 2.4951168235185 2.3204546985131 2.4734316531214 2.4660572750545 1.9135306184482 1.9967335978737 2.5111222933731 2.2681629349963 2.0999338361359 2.4132903086084 2.8439256617642 2.3794445890371 1.8038114783973 2.652636573091 2.401793929211 2.6608759338957 2.0862542469771 2.282411363388 2.624331249669 2.4978428357294 2.7387191802138 2.4901891301578 2.5845376052342 2.4913209296221 2.3992092355928 2.4133670999112 2.5681191167769 2.2556091782771 1.4771693243399 1.6510439395257 2.2697997472081 2.3976186532853 2.15415145127 2.4367504583207 2.0183455461109 2.4182183417747 2.5935651124616 1.8289730003889 2.5814361064417 2.2945707580997 2.6470345242363 2.4891817289952 2.5985204415304 2.3945544539967 2.405633032441 2.2253264778534 2.5124865417032 2.1843747309847 2.1831895374885 2.4022629885115 2.0550347817746 2.3508032398551 2.3463703233347 2.2934568483177 2.4781892628403 2.2157154308931 2.7425727621925 1.8425876269696 2.5559242798424 2.3723667707452 2.5828315185276 2.4709200213058 2.0679680813357 1.967483296767 2.0844860049126 2.1260105590494 1.690993571773 1.3026352289423 2.3587783920699 1.8874433214148 2.6759262745176 1.5273959622366 2.2700228785091 1.955585813523 1.9625639200721 2.4406069871537 1.4923668206214 2.3009482866789 1.9017306331333 2.5248920476302 1.8324397493256 0.96196561091652 2.2255934003314 2.0617635042246 1.75612914374 1.6568384834493 2.1349738046612 2.4709812098436 1.2702932633888 1.5752611321267 1.9366803179742 1.909928322126 1.1637650541858 2.0394809184917 2.2133296503402 2.070803880262 1.4286739197568 2.2775834899628 2.0549945542541 2.0806644735709 2.0336122835766 1.9367931574694 1.9500473897812 2.3521847877766 1.9171283500273 1.3957197951805 1.7035612308606 1.6415342380943 0.88963380078333 1.42329106968 2.0580184143922 1.7482284730876 1.9328528237647 1.8613968515036 1.7353514773033 0.79670264301049 2.0701122278413 1.5644023838632 2.1013875688498 1.7572789171195 1.377117769879 1.8452534023664 1.7665793828066 2.2897278318443 1.8224707233277 2.4403891269024 2.0341962074867 1.4790378495189 2.0096114056609 1.7677727052827 1.7395416573988 2.2590881225328 2.2593090175525 1.5527372514019 1.0701390331641 2.5674657076545 2.007158117837 1.676571301379 1.2980763136708 2.1463135277236 1.6349656618942 1.40988773378 2.3254086969492 2.1829725850084 1.1272335110897 1.5473418616444 1.0228572259998 2.0023736073265 1.9672791424104 1.6519862717346 2.139229853867 1.19805103342 0.8592549054225 1.0954137444946 1.656966006198 1.5765104146891 1.6252936865712 0.82738044779822 1.613247547207 1.2825537381824 0.85669868044259 1.0131073519115 1.1481473917774 1.5250288706283 1.1048327417528 2.4321332344064 1.7211193292318 1.7577834945685 1.914581309486 1.0361534848106 1.8679252802618 1.6370353734883 1.6320891437579 1.517469490426 1.1904124930016 0.9277282148367 0.64252931205321 1.5464520908414 1.5575926179098 1.7522371542194 1.187909007455 1.630446475044 0.88940141408917 0.91494225050638 1.6393401186758 1.4130613170716 1.1487057322007 1.5652667289456 0.8349349768123 1.2192473731545 0.58982439100196 0.7519616406441 0.68188672414306 1.259265283323 1.4588828612214 1.3307244505755 1.1225776807745 0.75025364204855 1.3395122258074 0.9968879750469 1.5988314468825 0.93532571576144 1.2929534399165 1.3675255566972 1.2615391327215 0.81863489497886 1.0794131500941 1.4231154423657 0.72030917901238 0.65681670330203 0.71728586497077 0.96574725334966 0.91674378496921 0.83651824618401 
SCALARS Marker double 1
LOOKUP_TABLE default
0 1 2 3 4 5 6 7 8 9 10 11 12 13 14 15 16 17 18 19 20 21 22 23 24 25 26 27 28 29 30 31 32 33 34 35 36 37 38 39 40 41 42 43 44 45 46 47 48 49 50 51 52 53 54 55 56 57 58 59 60 61 62 63 64 65 66 67 68 69 70 71 72 73 74 75 76 77 78 79 80 81 82 83 84 85 86 87 88 89 90 91 92 93 94 95 96 97 98 99 100 101 102 103 104 105 106 107 108 109 110 111 112 113 114 115 116 117 118 119 120 121 122 123 124 125 126 127 128 129 130 131 132 133 134 135 136 137 138 139 140 141 142 143 144 145 146 147 148 149 150 151 152 153 154 155 156 157 158 159 160 161 162 163 164 165 166 167 168 169 170 171 172 173 174 175 176 177 178 179 180 181 182 183 184 185 186 187 188 189 190 191 192 193 194 195 196 197 198 199 200 201 202 203 204 205 206 207 208 209 210 211 212 213 214 215 216 217 218 219 220 221 222 223 224 225 226 227 228 229 230 231 232 233 234 235 236 237 238 239 240 241 242 243 244 245 246 247 248 249 250 251 252 253 254 255 256 257 258 259 260 261 262 263 264 265 266 267 268 269 270 271 272 273 274 275 276 277 278 279 280 281 282 283 284 285 286 287 288 289 290 291 292 293 294 295 296 297 298 299 300 301 302 303 304 305 306 307 308 309 310 311 312 313 314 315 316 317 318 319 320 321 322 323 324 325 326 327 328 329 330 331 332 333 334 335 336 337 338 339 340 341 342 343 344 345 346 347 348 349 350 351 352 353 354 355 356 357 358 359 360 361 362 363 364 365 366 367 368 369 370 371 372 373 374 375 376 377 378 379 380 381 382 383 384 385 386 387 388 389 390 391 392 393 394 395 396 397 398 399 400 401 402 403 404 405 406 407 408 409 410 411 412 413 414 415 416 417 418 419 420 421 422 423 424 425 426 427 428 
SCALARS Resistivity double 1
LOOKUP_TABLE default
131.03237143742 82.545247587468 87.285875588317 73.864199269739 86.219027790701 87.983353565569 89.93490372785 64.401456027532 84.452379365065 93.770032393307 64.339503174483 67.909921511179 52.115271730679 68.128821112692 69.27940291466 72.560322408372 86.140997758977 59.820387031273 115.72651507688 51.401003955184 50.824898831461 171.20446792899 74.544664784515 86.330363776876 65.314543688671 67.150288875834 51.687710135355 181.45733049606 40.403160313237 40.652818226026 66.008263339043 103.31696137443 72.701520472332 47.457315540306 80.399905755111 156.00746473446 83.183418613167 214.37166053019 174.6611901729 89.66041076552 82.459040404791 115.81200157684 73.405695253579 61.394148215631 73.114880607599 45.478874833935 76.650821423199 200.29758459355 79.259993467435 83.564723436023 59.377307188381 81.486627613769 61.307352306714 58.533858615636 38.418364902478 69.821672322889 61.174707135153 74.807671683356 111.62829741309 82.116219190396 103.0741251252 91.102205426422 82.477613884347 44.760987144433 92.062798536633 78.210697753705 86.523256720084 49.339574516785 81.304558744006 50.273466891465 121.14612648543 86.901606059053 124.3433104928 76.620651826264 79.09677701013 54.970350553198 73.280634653589 55.51576121294 86.248769972081 116.14390524517 62.395433416726 106.59352555626 80.666589631324 68.938875269109 99.642371082602 81.454750519752 77.443025140318 68.310086738149 117.29704930601 79.274443642416 72.991844396507 94.244157393928 115.85940941983 85.598899137546 39.888161529136 39.112214076337 79.502411285872 86.809204209107 43.614791132229 97.221137701596 199.22280654434 131.80364962291 122.89807109015 87.956899678127 84.824458312536 57.387280408046 89.409074081311 45.197632609033 85.544164090761 64.395267575344 218.96489856168 181.99329811713 85.946305680826 75.998128088663 53.473860458535 46.168883420705 65.259109345919 123.80555563229 61.501354156561 63.184501368934 263.9845275014 100.58116024207 109.03298523178 99.072059212701 75.50582406556 77.231776064234 287.83368164113 59.085568055596 138.21856234431 78.845402895209 83.91558360023 96.893393749233 69.917602734551 63.98661959116 55.631877841135 84.629652128175 75.394694997213 82.255501395052 75.362729341269 74.1223248703 70.154374004811 82.051156581311 65.103633261285 46.700609297677 104.95480269485 53.839184292737 55.914654187278 58.594713047452 45.928225763664 67.087724873895 62.801277126518 77.852843744783 83.143043096186 78.872608976177 64.319279431155 74.788105344152 105.31669118108 75.808806259016 116.04814670953 99.28082465537 84.891123716939 110.8221412697 70.691033891204 123.5013869379 80.592269305616 101.43957699735 76.3055226956 158.82343292211 258.85090370902 84.899707533728 95.730920273961 57.403401382117 98.576925195981 74.865719031439 83.281170611977 119.77652405268 66.239065126614 77.276877960879 88.538838195929 68.298310399674 56.958099885503 85.485875890633 66.230364438839 61.297348674152 61.374292917232 53.844350517094 78.262404106715 63.633287344818 98.457296081377 96.551662003248 73.807922367012 93.088796410829 107.00536431194 85.123001938029 71.163230283859 47.819682614491 99.002846825736 74.145409559332 86.544081697192 164.45717369805 143.6086912201 63.874461544882 94.803636822061 101.44932004962 70.976282823326 82.831692159386 75.638165908266 73.19055720557 68.531847825106 79.287671289365 79.410116695064 92.203895774876 106.58624257311 98.713828102691 124.13250752296 98.080245626854 96.13627100436 59.895719692974 67.986578330026 87.001306986653 77.775175585945 103.78717100202 106.36000130581 140.16924892735 123.21332252364 191.90825207669 117.99788350751 92.465089772531 65.495240755034 95.932070910974 113.42039376467 73.784612114978 74.058902564944 88.017272851568 89.750814828576 89.908599703747 86.404951232419 85.26634071513 91.75908880073 114.21209982097 110.47239703178 82.304264443952 98.071849449002 138.09704223593 130.55631285227 86.403917559827 87.281528713559 76.085364220733 67.191307081478 121.1380838388 63.237592168911 87.17443711767 91.392685390199 81.074688243876 93.632964060263 91.090826865403 89.879310504375 81.144646599263 88.760226543919 115.16813627959 150.55796770427 87.492417277253 99.149045190165 99.579586942007 88.798007859759 158.84755028769 96.365283677195 92.544095712655 92.191052362108 85.211567319927 145.64555715164 70.167759014777 183.28016291296 85.117728886476 90.060138951546 114.63921928193 119.50052066633 82.501965280073 147.35716209694 182.78220291896 175.20822562226 221.72760264894 174.48581399697 131.92947057174 190.836886325 93.823804147406 131.60470661041 84.438553043157 105.65725989838 139.8798173582 120.60543718632 151.14501041364 95.080298765769 148.93226846332 97.66229802533 126.5606250889 240.03297827389 105.91967788282 119.71956747644 121.44278732564 109.72465234544 133.53460961915 55.79942523636 256.09552439147 243.37658970354 191.69416400509 127.45395232507 179.22974819809 96.013937128069 112.96756457262 113.99253522478 153.84364279917 99.55147756601 120.14617712178 116.20365962905 111.58531186106 92.615922034757 108.01175967183 76.963431024394 142.98289730829 163.77900821307 175.76866764266 132.69732888103 298.03588861917 161.21671111209 120.80828267176 177.56711545783 100.71673893769 94.320085705835 113.18251761714 411.39747946854 119.74371316039 123.43456762876 102.18201485903 128.49017733844 147.76557077367 104.41479158242 173.92220627091 111.05325789209 109.97400458322 92.619403339243 110.84390842748 142.68760489134 119.10997819238 132.73654833656 123.9555415228 101.4156549347 110.54041177063 201.09298770853 210.04433267706 62.333972968318 116.82472460689 135.9769650953 164.08713971358 86.600752889395 121.35104440065 157.49188341808 76.021112068956 112.80064817826 211.72642774491 180.91304580164 299.7071610178 155.45047311398 105.65663119424 136.64571379343 109.07009179229 167.68296310671 250.7957293543 210.68102108989 109.94606419343 128.63481840638 133.83951577313 237.36658436088 165.6311307734 189.30320504648 277.03982307183 205.94302341924 187.13646165852 215.2858603579 261.81781486953 66.969111422323 200.8883120247 228.06488769145 206.79858285124 212.25330812031 119.92443297581 248.84203703911 118.4259459904 222.84375331604 333.31240510176 231.12760174776 276.73162069793 235.72571383612 236.48845596227 231.30116678291 252.16347400428 172.27189519666 350.57334368901 253.22545621322 179.91877842244 252.93961981799 362.12368265132 139.13908183933 308.70603619798 268.74726443905 294.77404119957 300.23362298415 341.41607094602 201.52071602162 261.51599928995 259.91603398683 280.41474258891 261.16113175575 322.91713228648 352.68802218273 213.60882983079 321.325333913 226.01779499242 193.80285944054 324.32364221207 393.46764241652 310.4068085531 235.31666178486 291.76968712666 233.09196461371 222.5792178839 395.61442615811 398.05577808157 390.66618819765 
SCALARS Resistivity_(log10) double 1
LOOKUP_TABLE default