# vtk DataFile Version 3.0
d-2__ created by libgimli-v1.5.0-1-g5991b6ac
ASCII
DATASET UNSTRUCTURED_GRID
POINTS 10201 double
0	-10	0
0.5	-10	0
0.5	-9.9	0
0	-9.9	0
1	-10	0
1	-9.9	0
1.5	-10	0
1.5	-9.9	0
2	-10	0
2	-9.9	0
2.5	-10	0
2.5	-9.9	0
3	-10	0
3	-9.9	0
3.5	-10	0
3.5	-9.9	0
4	-10	0
4	-9.9	0
4.5	-10	0
4.5	-9.9	0
5	-10	0
5	-9.9	0
5.5	-10	0
5.5	-9.9	0
6	-10	0
6	-9.9	0
6.5	-10	0
6.5	-9.9	0
7	-10	0
7	-9.9	0
7.5	-10	0
7.5	-9.9	0
8	-10	0
8	-9.9	0
8.5	-10	0
8.5	-9.9	0
9	-10	0
9	-9.9	0
9.5	-10	0
9.5	-9.9	0
10	-10	0
10	-9.9	0
10.5	-10	0
10.5	-9.9	0
11	-10	0
11	-9.9	0
11.5	-10	0
11.5	-9.9	0
12	-10	0
12	-9.9	0
12.5	-10	0
12.5	-9.9	0
13	-10	0
13	-9.9	0
13.5	-10	0
13.5	-9.9	0
14	-10	0
14	-9.9	0
14.5	-10	0
14.5	-9.9	0
15	-10	0
15	-9.9	0
15.5	-10	0
15.5	-9.9	0
16	-10	0
16	-9.9	0
16.5	-10	0
16.5	-9.9	0
17	-10	0
17	-9.9	0
17.5	-10	0
17.5	-9.9	0
18	-10	0
18	-9.9	0
18.5	-10	0
18.5	-9.9	0
19	-10	0
19	-9.9	0
19.5	-10	0
19.5	-9.9	0
20	-10	0
20	-9.9	0
20.5	-10	0
20.5	-9.9	0
21	-10	0
21	-9.9	0
21.5	-10	0
21.5	-9.9	0
22	-10	0
22	-9.9	0
22.5	-10	0
22.5	-9.9	0
23	-10	0
23	-9.9	0
23.5	-10	0
23.5	-9.9	0
24	-10	0
24	-9.9	0
24.5	-10	0
24.5	-9.9	0
25	-10	0
25	-9.9	0
25.5	-10	0
25.5	-9.9	0
26	-10	0
26	-9.9	0
26.5	-10	0
26.5	-9.9	0
27	-10	0
27	-9.9	0
27.5	-10	0
27.5	-9.9	0
28	-10	0
28	-9.9	0
28.5	-10	0
28.5	-9.9	0
29	-10	0
29	-9.9	0
29.5	-10	0
29.5	-9.9	0
30	-10	0
30	-9.9	0
30.5	-10	0
30.5	-9.9	0
31	-10	0
31	-9.9	0
31.5	-10	0
31.5	-9.9	0
32	-10	0
32	-9.9	0
32.5	-10	0
32.5	-9.9	0
33	-10	0
33	-9.9	0
33.5	-10	0
33.5	-9.9	0
34	-10	0
34	-9.9	0
34.5	-10	0
34.5	-9.9	0
35	-10	0
35	-9.9	0
35.5	-10	0
35.5	-9.9	0
36	-10	0
36	-9.9	0
36.5	-10	0
36.5	-9.9	0
37	-10	0
37	-9.9	0
37.5	-10	0
37.5	-9.9	0
38	-10	0
38	-9.9	0
38.5	-10	0
38.5	-9.9	0
39	-10	0
39	-9.9	0
39.5	-10	0
39.5	-9.9	0
40	-10	0
40	-9.9	0
40.5	-10	0
40.5	-9.9	0
41	-10	0
41	-9.9	0
41.5	-10	0
41.5	-9.9	0
42	-10	0
42	-9.9	0
42.5	-10	0
42.5	-9.9	0
43	-10	0
43	-9.9	0
43.5	-10	0
43.5	-9.9	0
44	-10	0
44	-9.9	0
44.5	-10	0
44.5	-9.9	0
45	-10	0
45	-9.9	0
45.5	-10	0
45.5	-9.9	0
46	-10	0
46	-9.9	0
46.5	-10	0
46.5	-9.9	0
47	-10	0
47	-9.9	0
47.5	-10	0
47.5	-9.9	0
48	-10	0
48	-9.9	0
48.5	-10	0
48.5	-9.9	0
49	-10	0
49	-9.9	0
49.5	-10	0
49.5	-9.9	0
50	-10	0
50	-9.9	0
0.5	-9.8	0
0	-9.8	0
1	-9.8	0
1.5	-9.8	0
2	-9.8	0
2.5	-9.8	0
3	-9.8	0
3.5	-9.8	0
4	-9.8	0
4.5	-9.8	0
5	-9.8	0
5.5	-9.8	0
6	-9.8	0
6.5	-9.8	0
7	-9.8	0
7.5	-9.8	0
8	-9.8	0
8.5	-9.8	0
9	-9.8	0
9.5	-9.8	0
10	-9.8	0
10.5	-9.8	0
11	-9.8	0
11.5	-9.8	0
12	-9.8	0
12.5	-9.8	0
13	-9.8	0
13.5	-9.8	0
14	-9.8	0
14.5	-9.8	0
15	-9.8	0
15.5	-9.8	0
16	-9.8	0
16.5	-9.8	0
17	-9.8	0
17.5	-9.8	0
18	-9.8	0
18.5	-9.8	0
19	-9.8	0
19.5	-9.8	0
20	-9.8	0
20.5	-9.8	0
21	-9.8	0
21.5	-9.8	0
22	-9.8	0
22.5	-9.8	0
23	-9.8	0
23.5	-9.8	0
24	-9.8	0
24.5	-9.8	0
25	-9.8	0
25.5	-9.8	0
26	-9.8	0
26.5	-9.8	0
27	-9.8	0
27.5	-9.8	0
28	-9.8	0
28.5	-9.8	0
29	-9.8	0
29.5	-9.8	0
30	-9.8	0
30.5	-9.8	0
31	-9.8	0
31.5	-9.8	0
32	-9.8	0
32.5	-9.8	0
33	-9.8	0
33.5	-9.8	0
34	-9.8	0
34.5	-9.8	0
35	-9.8	0
35.5	-9.8	0
36	-9.8	0
36.5	-9.8	0
37	-9.8	0
37.5	-9.8	0
38	-9.8	0
38.5	-9.8	0
39	-9.8	0
39.5	-9.8	0
40	-9.8	0
40.5	-9.8	0
41	-9.8	0
41.5	-9.8	0
42	-9.8	0
42.5	-9.8	0
43	-9.8	0
43.5	-9.8	0
44	-9.8	0
44.5	-9.8	0
45	-9.8	0
45.5	-9.8	0
46	-9.8	0
46.5	-9.8	0
47	-9.8	0
47.5	-9.8	0
48	-9.8	0
48.5	-9.8	0
49	-9.8	0
49.5	-9.8	0
50	-9.8	0
0.5	-9.7	0
0	-9.7	0
1	-9.7	0
1.5	-9.7	0
2	-9.7	0
2.5	-9.7	0
3	-9.7	0
3.5	-9.7	0
4	-9.7	0
4.5	-9.7	0
5	-9.7	0
5.5	-9.7	0
6	-9.7	0
6.5	-9.7	0
7	-9.7	0
7.5	-9.7	0
8	-9.7	0
8.5	-9.7	0
9	-9.7	0
9.5	-9.7	0
10	-9.7	0
10.5	-9.7	0
11	-9.7	0
11.5	-9.7	0
12	-9.7	0
12.5	-9.7	0
13	-9.7	0
13.5	-9.7	0
14	-9.7	0
14.5	-9.7	0
15	-9.7	0
15.5	-9.7	0
16	-9.7	0
16.5	-9.7	0
17	-9.7	0
17.5	-9.7	0
18	-9.7	0
18.5	-9.7	0
19	-9.7	0
19.5	-9.7	0
20	-9.7	0
20.5	-9.7	0
21	-9.7	0
21.5	-9.7	0
22	-9.7	0
22.5	-9.7	0
23	-9.7	0
23.5	-9.7	0
24	-9.7	0
24.5	-9.7	0
25	-9.7	0
25.5	-9.7	0
26	-9.7	0
26.5	-9.7	0
27	-9.7	0
27.5	-9.7	0
28	-9.7	0
28.5	-9.7	0
29	-9.7	0
29.5	-9.7	0
30	-9.7	0
30.5	-9.7	0
31	-9.7	0
31.5	-9.7	0
32	-9.7	0
32.5	-9.7	0
33	-9.7	0
33.5	-9.7	0
34	-9.7	0
34.5	-9.7	0
35	-9.7	0
35.5	-9.7	0
36	-9.7	0
36.5	-9.7	0
37	-9.7	0
37.5	-9.7	0
38	-9.7	0
38.5	-9.7	0
39	-9.7	0
39.5	-9.7	0
40	-9.7	0
40.5	-9.7	0
41	-9.7	0
41.5	-9.7	0
42	-9.7	0
42.5	-9.7	0
43	-9.7	0
43.5	-9.7	0
44	-9.7	0
44.5	-9.7	0
45	-9.7	0
45.5	-9.7	0
46	-9.7	0
46.5	-9.7	0
47	-9.7	0
47.5	-9.7	0
48	-9.7	0
48.5	-9.7	0
49	-9.7	0
49.5	-9.7	0
50	-9.7	0
0.5	-9.6	0
0	-9.6	0
1	-9.6	0
1.5	-9.6	0
2	-9.6	0
2.5	-9.6	0
3	-9.6	0
3.5	-9.6	0
4	-9.6	0
4.5	-9.6	0
5	-9.6	0
5.5	-9.6	0
6	-9.6	0
6.5	-9.6	0
7	-9.6	0
7.5	-9.6	0
8	-9.6	0
8.5	-9.6	0
9	-9.6	0
9.5	-9.6	0
10	-9.6	0
10.5	-9.6	0
11	-9.6	0
11.5	-9.6	0
12	-9.6	0
12.5	-9.6	0
13	-9.6	0
13.5	-9.6	0
14	-9.6	0
14.5	-9.6	0
15	-9.6	0
15.5	-9.6	0
16	-9.6	0
16.5	-9.6	0
17	-9.6	0
17.5	-9.6	0
18	-9.6	0
18.5	-9.6	0
19	-9.6	0
19.5	-9.6	0
20	-9.6	0
20.5	-9.6	0
21	-9.6	0
21.5	-9.6	0
22	-9.6	0
22.5	-9.6	0
23	-9.6	0
23.5	-9.6	0
24	-9.6	0
24.5	-9.6	0
25	-9.6	0
25.5	-9.6	0
26	-9.6	0
26.5	-9.6	0
27	-9.6	0
27.5	-9.6	0
28	-9.6	0
28.5	-9.6	0
29	-9.6	0
29.5	-9.6	0
30	-9.6	0
30.5	-9.6	0
31	-9.6	0
31.5	-9.6	0
32	-9.6	0
32.5	-9.6	0
33	-9.6	0
33.5	-9.6	0
34	-9.6	0
34.5	-9.6	0
35	-9.6	0
35.5	-9.6	0
36	-9.6	0
36.5	-9.6	0
37	-9.6	0
37.5	-9.6	0
38	-9.6	0
38.5	-9.6	0
39	-9.6	0
39.5	-9.6	0
40	-9.6	0
40.5	-9.6	0
41	-9.6	0
41.5	-9.6	0
42	-9.6	0
42.5	-9.6	0
43	-9.6	0
43.5	-9.6	0
44	-9.6	0
44.5	-9.6	0
45	-9.6	0
45.5	-9.6	0
46	-9.6	0
46.5	-9.6	0
47	-9.6	0
47.5	-9.6	0
48	-9.6	0
48.5	-9.6	0
49	-9.6	0
49.5	-9.6	0
50	-9.6	0
0.5	-9.5	0
0	-9.5	0
1	-9.5	0
1.5	-9.5	0
2	-9.5	0
2.5	-9.5	0
3	-9.5	0
3.5	-9.5	0
4	-9.5	0
4.5	-9.5	0
5	-9.5	0
5.5	-9.5	0
6	-9.5	0
6.5	-9.5	0
7	-9.5	0
7.5	-9.5	0
8	-9.5	0
8.5	-9.5	0
9	-9.5	0
9.5	-9.5	0
10	-9.5	0
10.5	-9.5	0
11	-9.5	0
11.5	-9.5	0
12	-9.5	0
12.5	-9.5	0
13	-9.5	0
13.5	-9.5	0
14	-9.5	0
14.5	-9.5	0
15	-9.5	0
15.5	-9.5	0
16	-9.5	0
16.5	-9.5	0
17	-9.5	0
17.5	-9.5	0
18	-9.5	0
18.5	-9.5	0
19	-9.5	0
19.5	-9.5	0
20	-9.5	0
20.5	-9.5	0
21	-9.5	0
21.5	-9.5	0
22	-9.5	0
22.5	-9.5	0
23	-9.5	0
23.5	-9.5	0
24	-9.5	0
24.5	-9.5	0
25	-9.5	0
25.5	-9.5	0
26	-9.5	0
26.5	-9.5	0
27	-9.5	0
27.5	-9.5	0
28	-9.5	0
28.5	-9.5	0
29	-9.5	0
29.5	-9.5	0
30	-9.5	0
30.5	-9.5	0
31	-9.5	0
31.5	-9.5	0
32	-9.5	0
32.5	-9.5	0
33	-9.5	0
33.5	-9.5	0
34	-9.5	0
34.5	-9.5	0
35	-9.5	0
35.5	-9.5	0
36	-9.5	0
36.5	-9.5	0
37	-9.5	0
37.5	-9.5	0
38	-9.5	0
38.5	-9.5	0
39	-9.5	0
39.5	-9.5	0
40	-9.5	0
40.5	-9.5	0
41	-9.5	0
41.5	-9.5	0
42	-9.5	0
42.5	-9.5	0
43	-9.5	0
43.5	-9.5	0
44	-9.5	0
44.5	-9.5	0
45	-9.5	0
45.5	-9.5	0
46	-9.5	0
46.5	-9.5	0
47	-9.5	0
47.5	-9.5	0
48	-9.5	0
48.5	-9.5	0
49	-9.5	0
49.5	-9.5	0
50	-9.5	0
0.5	-9.4	0
0	-9.4	0
1	-9.4	0
1.5	-9.4	0
2	-9.4	0
2.5	-9.4	0
3	-9.4	0
3.5	-9.4	0
4	-9.4	0
4.5	-9.4	0
5	-9.4	0
5.5	-9.4	0
6	-9.4	0
6.5	-9.4	0
7	-9.4	0
7.5	-9.4	0
8	-9.4	0
8.5	-9.4	0
9	-9.4	0
9.5	-9.4	0
10	-9.4	0
10.5	-9.4	0
11	-9.4	0
11.5	-9.4	0
12	-9.4	0
12.5	-9.4	0
13	-9.4	0
13.5	-9.4	0
14	-9.4	0
14.5	-9.4	0
15	-9.4	0
15.5	-9.4	0
16	-9.4	0
16.5	-9.4	0
17	-9.4	0
17.5	-9.4	0
18	-9.4	0
18.5	-9.4	0
19	-9.4	0
19.5	-9.4	0
20	-9.4	0
20.5	-9.4	0
21	-9.4	0
21.5	-9.4	0
22	-9.4	0
22.5	-9.4	0
23	-9.4	0
23.5	-9.4	0
24	-9.4	0
24.5	-9.4	0
25	-9.4	0
25.5	-9.4	0
26	-9.4	0
26.5	-9.4	0
27	-9.4	0
27.5	-9.4	0
28	-9.4	0
28.5	-9.4	0
29	-9.4	0
29.5	-9.4	0
30	-9.4	0
30.5	-9.4	0
31	-9.4	0
31.5	-9.4	0
32	-9.4	0
32.5	-9.4	0
33	-9.4	0
33.5	-9.4	0
34	-9.4	0
34.5	-9.4	0
35	-9.4	0
35.5	-9.4	0
36	-9.4	0
36.5	-9.4	0
37	-9.4	0
37.5	-9.4	0
38	-9.4	0
38.5	-9.4	0
39	-9.4	0
39.5	-9.4	0
40	-9.4	0
40.5	-9.4	0
41	-9.4	0
41.5	-9.4	0
42	-9.4	0
42.5	-9.4	0
43	-9.4	0
43.5	-9.4	0
44	-9.4	0
44.5	-9.4	0
45	-9.4	0
45.5	-9.4	0
46	-9.4	0
46.5	-9.4	0
47	-9.4	0
47.5	-9.4	0
48	-9.4	0
48.5	-9.4	0
49	-9.4	0
49.5	-9.4	0
50	-9.4	0
0.5	-9.3	0
0	-9.3	0
1	-9.3	0
1.5	-9.3	0
2	-9.3	0
2.5	-9.3	0
3	-9.3	0
3.5	-9.3	0
4	-9.3	0
4.5	-9.3	0
5	-9.3	0
5.5	-9.3	0
6	-9.3	0
6.5	-9.3	0
7	-9.3	0
7.5	-9.3	0
8	-9.3	0
8.5	-9.3	0
9	-9.3	0
9.5	-9.3	0
10	-9.3	0
10.5	-9.3	0
11	-9.3	0
11.5	-9.3	0
12	-9.3	0
12.5	-9.3	0
13	-9.3	0
13.5	-9.3	0
14	-9.3	0
14.5	-9.3	0
15	-9.3	0
15.5	-9.3	0
16	-9.3	0
16.5	-9.3	0
17	-9.3	0
17.5	-9.3	0
18	-9.3	0
18.5	-9.3	0
19	-9.3	0
19.5	-9.3	0
20	-9.3	0
20.5	-9.3	0
21	-9.3	0
21.5	-9.3	0
22	-9.3	0
22.5	-9.3	0
23	-9.3	0
23.5	-9.3	0
24	-9.3	0
24.5	-9.3	0
25	-9.3	0
25.5	-9.3	0
26	-9.3	0
26.5	-9.3	0
27	-9.3	0
27.5	-9.3	0
28	-9.3	0
28.5	-9.3	0
29	-9.3	0
29.5	-9.3	0
30	-9.3	0
30.5	-9.3	0
31	-9.3	0
31.5	-9.3	0
32	-9.3	0
32.5	-9.3	0
33	-9.3	0
33.5	-9.3	0
34	-9.3	0
34.5	-9.3	0
35	-9.3	0
35.5	-9.3	0
36	-9.3	0
36.5	-9.3	0
37	-9.3	0
37.5	-9.3	0
38	-9.3	0
38.5	-9.3	0
39	-9.3	0
39.5	-9.3	0
40	-9.3	0
40.5	-9.3	0
41	-9.3	0
41.5	-9.3	0
42	-9.3	0
42.5	-9.3	0
43	-9.3	0
43.5	-9.3	0
44	-9.3	0
44.5	-9.3	0
45	-9.3	0
45.5	-9.3	0
46	-9.3	0
46.5	-9.3	0
47	-9.3	0
47.5	-9.3	0
48	-9.3	0
48.5	-9.3	0
49	-9.3	0
49.5	-9.3	0
50	-9.3	0
0.5	-9.2	0
0	-9.2	0
1	-9.2	0
1.5	-9.2	0
2	-9.2	0
2.5	-9.2	0
3	-9.2	0
3.5	-9.2	0
4	-9.2	0
4.5	-9.2	0
5	-9.2	0
5.5	-9.2	0
6	-9.2	0
6.5	-9.2	0
7	-9.2	0
7.5	-9.2	0
8	-9.2	0
8.5	-9.2	0
9	-9.2	0
9.5	-9.2	0
10	-9.2	0
10.5	-9.2	0
11	-9.2	0
11.5	-9.2	0
12	-9.2	0
12.5	-9.2	0
13	-9.2	0
13.5	-9.2	0
14	-9.2	0
14.5	-9.2	0
15	-9.2	0
15.5	-9.2	0
16	-9.2	0
16.5	-9.2	0
17	-9.2	0
17.5	-9.2	0
18	-9.2	0
18.5	-9.2	0
19	-9.2	0
19.5	-9.2	0
20	-9.2	0
20.5	-9.2	0
21	-9.2	0
21.5	-9.2	0
22	-9.2	0
22.5	-9.2	0
23	-9.2	0
23.5	-9.2	0
24	-9.2	0
24.5	-9.2	0
25	-9.2	0
25.5	-9.2	0
26	-9.2	0
26.5	-9.2	0
27	-9.2	0
27.5	-9.2	0
28	-9.2	0
28.5	-9.2	0
29	-9.2	0
29.5	-9.2	0
30	-9.2	0
30.5	-9.2	0
31	-9.2	0
31.5	-9.2	0
32	-9.2	0
32.5	-9.2	0
33	-9.2	0
33.5	-9.2	0
34	-9.2	0
34.5	-9.2	0
35	-9.2	0
35.5	-9.2	0
36	-9.2	0
36.5	-9.2	0
37	-9.2	0
37.5	-9.2	0
38	-9.2	0
38.5	-9.2	0
39	-9.2	0
39.5	-9.2	0
40	-9.2	0
40.5	-9.2	0
41	-9.2	0
41.5	-9.2	0
42	-9.2	0
42.5	-9.2	0
43	-9.2	0
43.5	-9.2	0
44	-9.2	0
44.5	-9.2	0
45	-9.2	0
45.5	-9.2	0
46	-9.2	0
46.5	-9.2	0
47	-9.2	0
47.5	-9.2	0
48	-9.2	0
48.5	-9.2	0
49	-9.2	0
49.5	-9.2	0
50	-9.2	0
0.5	-9.1	0
0	-9.1	0
1	-9.1	0
1.5	-9.1	0
2	-9.1	0
2.5	-9.1	0
3	-9.1	0
3.5	-9.1	0
4	-9.1	0
4.5	-9.1	0
5	-9.1	0
5.5	-9.1	0
6	-9.1	0
6.5	-9.1	0
7	-9.1	0
7.5	-9.1	0
[...]
CELL_DATA 10000
SCALARS Coverage double 1
LOOKUP_TABLE default
-0.25784540915937 -0.23496121383992 -0.2136649763393 -0.19387514280467 -0.17551335352716 -0.15839153161014 -0.14238762547867 -0.12748088795928 -0.11363732867209 -0.10070244313344 -0.088699107378831 -0.07770541602996 -0.067650724756743 -0.058401517530423 -0.049899520903787 -0.041847499486603 -0.034594262296928 -0.027612571484764 -0.021388328238818 -0.015166648505671 -0.0096124210954897 -0.0039466970090072 0.0011805943858596 0.0062044202088808 0.011178611304513 0.015644185535714 0.020302582924975 0.024459662265409 0.028602603806212 0.032398218649613 0.036240635318098 0.039776194557091 0.043353840818269 0.046958749825129 0.049964696825554 0.053082956227639 0.056191766832258 0.05895581316031 0.061736849345492 0.064503690859605 0.066746465904578 0.069008268175304 0.070953232480245 0.072793365879269 0.074237863787401 0.075680292171484 0.076425928275987 0.07707613575505 0.077163154847885 0.077053157967002 0.076659992056931 0.076245391962074 0.075564087703471 0.075147257739978 0.074532265878049 0.073963822953431 0.073147897450467 0.072292026062831 0.071076859395684 0.06967110806609 0.068130609815112 0.066147358606411 0.064036934464332 0.061580234609217 0.058505825046922 0.054991021537981 0.051093587754263 0.046453918807992 0.04138277449167 0.035629316533364 0.029439888787759 0.022527994224192 0.015076505110469 0.0072989088027242 -0.0011250188007388 -0.0099707413916638 -0.019281658237209 -0.028730769393269 -0.038859452878612 -0.049003869998177 -0.059715515671449 -0.070670804209799 -0.082184653743733 -0.0938747106857 -0.10617329529635 -0.11885686902447 -0.13173478307523 -0.14512037678941 -0.15900115733703 -0.17348576182585 -0.18850917430534 -0.20385043573757 -0.21954018325823 -0.23576219384835 -0.25270554506053 -0.27021104626484 -0.2882296820989 -0.30689276782506 -0.32671317775901 -0.34813716532864 -0.24664306272287 -0.22356086765849 -0.20208884100929 -0.18214198962249 -0.16363443607437 -0.14636601494698 -0.13022344037941 -0.11519702779123 -0.10122290395402 -0.088174306781939 -0.076064861183839 -0.064954237034503 -0.054799395216492 -0.045458078428165 -0.03687023509144 -0.028795249871937 -0.021413784356798 -0.014440557487004 -0.008071403880787 -0.001873077393033 0.003814588420441 0.009441473239868 0.014673606354809 0.019739562972491 0.02469558302194 0.029289228923552 0.033886904567237 0.038131465265956 0.042273513164297 0.046102295766661 0.049895935865157 0.053509490735731 0.057110254506116 0.060636160115085 0.06373552048315 0.066835758455674 0.069905742444932 0.072738717283076 0.075530049673091 0.07822839421158 0.080552277618782 0.082786537516957 0.084737111609513 0.086516015883569 0.088034934925755 0.089402279227569 0.09022234180921 0.090803771875945 0.090957195310433 0.090836253138853 0.090455791006319 0.090012241958373 0.089406907762783 0.088944122758088 0.088408513081648 0.087863561245517 0.087111693273664 0.086244929337166 0.085120962412484 0.083761603500932 0.082215765506902 0.080314269953101 0.078255582414062 0.075788641162669 0.07278932464017 0.069296113790859 0.06536717435434 0.060766074545185 0.0556975412441 0.049956022302539 0.043709405993594 0.036789946311594 0.029322397888325 0.021432909940694 0.013013159683793 0.0041177589235279 -0.0052379497744075 -0.014824908437212 -0.024925880817993 -0.035249061899875 -0.045974369420976 -0.057032051575593 -0.06862593494257 -0.080477973408303 -0.092842140055856 -0.10563660914343 -0.11871191735773 -0.13217343258509 -0.14619881060883 -0.16086416831728 -0.17604529073605 -0.19156919758148 -0.20742779805141 -0.22382476021909 -0.24095092734397 -0.25862745822335 -0.27682098265333 -0.29564925668142 -0.31563767158056 -0.33729101261568 -0.23553832003267 -0.21225985920994 -0.19060691817777 -0.17049512893964 -0.1518336465673 -0.13440954444766 -0.11811982258328 -0.10295133200068 -0.088836171648825 -0.075665365273573 -0.063435517943787 -0.052199315816429 -0.041932864674628 -0.032493029226591 -0.023815097417783 -0.015683702405954 -0.0081983305141756 -0.0011958150743652 0.0052903008034034 0.011504228637601 0.017293551908726 0.022928415794594 0.028238627661067 0.03335430619449 0.038329044325159 0.043008417063839 0.047595070609631 0.051897025619346 0.056051484521148 0.059904416536385 0.063689322964834 0.067353386150994 0.070971323938643 0.074461719391852 0.077615336740541 0.080709217574821 0.083765467904645 0.086639807081965 0.089432807729763 0.09210398043532 0.094473794431406 0.09669458974104 0.098643988861553 0.10039038398124 0.10194223415639 0.10327330450508 0.1041362714851 0.10468204097192 0.10487498250488 0.10475087614346 0.10438959618266 0.10393528882946 0.10338374127812 0.10290602078234 0.10242497926568 0.10191109082644 0.10122119235231 0.10036990309799 0.099317596181549 0.098009793825674 0.096478923314604 0.094641618769898 0.092635066747054 0.090181272384732 0.087234712806124 0.083770960802164 0.079828612594518 0.075252156561315 0.070184563720203 0.06445121731692 0.05817032455353 0.051218478745655 0.043718042318324 0.035754769718662 0.027302909621181 0.018353909522994 0.0089512314522362 -0.00075696147133289 -0.010885098312951 -0.021340390071694 -0.032120127923902 -0.043286971048794 -0.054970419134593 -0.066973188196125 -0.079440812089269 -0.092356716922763 -0.10561243606391 -0.11920107281949 -0.13337451522383 -0.1482238360815 -0.16359387230322 -0.17930229409549 -0.19534714429574 -0.21194344023593 -0.2292618847069 -0.24712204768217 -0.26549963056067 -0.28450043259455 -0.30466158810003 -0.32654659862901 -0.22452278198826 -0.20104445852988 -0.17920483139926 -0.15892043954236 -0.14009722956827 -0.12250860335717 -0.10605972961801 -0.090737180405154 -0.076471929767675 -0.063162735753949 -0.050804110177169 -0.039431769202485 -0.029044815248222 -0.019500496732349 -0.010724319878139 -0.00251626738605 0.0050646488181703 0.012117425970919 0.018710312808114 0.024967897584107 0.030843526485704 0.036509668605844 0.041892604250009 0.047054486307721 0.052069929801264 0.056812325691023 0.06141898705623 0.065768595339425 0.069933804031791 0.07382006003097 0.07760621788865 0.081306602687882 0.084943363222416 0.08842069530511 0.091606149437657 0.094696341401778 0.09775632984 0.1006589618224 0.10345319419031 0.10611102230655 0.10851198273232 0.11072291730759 0.11267174312464 0.11439392914037 0.11596073355721 0.11727791675637 0.11816947637709 0.11869745243842 0.11891783426286 0.11879411821189 0.11844980147843 0.1179958285076 0.11749485265216 0.1170101787719 0.11658297166202 0.11610842736487 0.11547212350311 0.11465858000218 0.11366362604025 0.11240786951972 0.11090954630238 0.1091397389378 0.10718029181521 0.10475219535144 0.10184450953314 0.098411908696042 0.094473403653113 0.089919352986923 0.084852426357008 0.079119341362848 0.072802626840504 0.065815398233156 0.05828371030167 0.050254520452678 0.041745881628682 0.032744364973226 0.02328048220247 0.01346650242488 0.0032801564409865 -0.007289105248907 -0.018147762334562 -0.029430335084403 -0.041206498052107 -0.053361101288641 -0.065947932474345 -0.079011040946308 -0.092442421964441 -0.10618298689811 -0.12051547662828 -0.13556190483722 -0.15113571992275 -0.16704591387729 -0.18329192913288 -0.20010013105744 -0.21762275017055 -0.23567867108912 -0.25425194486581 -0.27343151188857 -0.29376924425709 -0.31587708499977 -0.21358120879332 -0.1899010271399 -0.16786926618474 -0.14740503813642 -0.12841261072624 -0.11065104058714 -0.094031508261403 -0.078545905686583 -0.064120571910957 -0.050658575363104 -0.038156288564709 -0.02664558000195 -0.016129041825469 -0.0064740166625186 0.0024087055377338 0.010706660406293 0.018386807889888 0.025503811777806 0.032197572430695 0.038516465832584 0.044469970196864 0.050185122997086 0.055634820730037 0.060848203222887 0.06591215654188 0.070709246338709 0.075353433425879 0.07973865070607 0.083916263174965 0.087840177921144 0.091637904975029 0.095367012585412 0.099018708413398 0.10249665017024 0.10569931349097 0.1087924946454 0.11186433413342 0.11478105166438 0.11758011316846 0.12023563798936 0.12265481708284 0.12485626073698 0.12680816056286 0.12851201227437 0.13008791180459 0.13140056700965 0.13230825335255 0.13282915045326 0.13307167356403 0.13295605915789 0.13262384382845 0.13218065245548 0.1317254165967 0.13124857731526 0.13086958976769 0.13044114504421 0.1298546597779 0.12908845406692 0.12815014804438 0.12695284243663 0.12549733564851 0.1237895984934 0.12187416234651 0.11948854158082 0.11662204425879 0.11321449297027 0.10928754179766 0.10475458003061 0.099682089710795 0.093952974103088 0.087600316355469 0.08057812355335 0.073005037165522 0.064921120891483 0.056341789190244 0.047291433729143 0.037757319694695 0.027836865823728 0.01757323996984 0.0068997372467619 -0.0040568102756082 -0.015449601949246 -0.027334560822721 -0.039643126728418 -0.052368696980659 -0.06558942977229 -0.079193184215285 -0.093102095549238 -0.10761210177981 -0.12286289156505 -0.13865329438979 -0.15478290389108 -0.17125029337218 -0.18828059543567 -0.20602079537686 -0.22428225841353 -0.24306274559247 -0.26242767129144 -0.28294583692002 -0.30528252414058 -0.20271908382764 -0.1788174111685 -0.15658722877991 -0.1359361576487 -0.11676373590388 -0.098824567444867 -0.082023387234293 -0.066365945299081 -0.051768570243118 -0.038141653959006 -0.025487380438393 -0.013832804606696 -0.0031772397431051 0.0065959318186949 0.015593146826753 0.023993327496976 0.031771177011871 0.038969196862115 0.045759567746688 0.052146774072503 0.058178859698162 0.063950548127122 0.069467224708808 0.074735477609072 0.079850525419752 0.084701534824654 0.089388302137562 0.093807050706123 0.097999651984139 0.10195681288978 0.10577680048782 0.10953057435491 0.11319941341579 0.11667933745088 0.11989598150592 0.12298759029009 0.12608580293592 0.12901173392063 0.13181413430355 0.13446934797384 0.1369045543091 0.13909276293125 0.14105112799759 0.14273820711799 0.14431959628024 0.14563842151546 0.14655188385341 0.14706926621782 0.14733329499406 0.14723214810678 0.14691021454133 0.14648709666327 0.14607010971714 0.14561148299848 0.1452727294971 0.14489713876757 0.14436033131352 0.14365061741861 0.14277119230116 0.14163850739049 0.14024041481814 0.13858819274128 0.13672066330324 0.13438561618761 0.13155141142264 0.12817323070288 0.12426329702127 0.11975169915016 0.11467236549968 0.10894493321584 0.10255337449956 0.095494093707356 0.087877509224389 0.079743768078102 0.07109051687674 0.061989721604133 0.052377343899215 0.042357899819494 0.031998036867116 0.021230649169674 0.010163407371009 -0.001339714036295 -0.013353398605088 -0.025816094287689 -0.038694049282486 -0.052071837390718 -0.065863484898869 -0.07995664795207 -0.094653098519598 -0.11012581705783 -0.12614662477333 -0.14250814016756 -0.15920850955953 -0.17647061291799 -0.1944338029413 -0.21292421571553 -0.2319099427493 -0.251473618255 -0.27217436221398 -0.29472508059723 -0.19189598166452 -0.16778118571235 -0.14534742300059 -0.12450272968614 -0.10513955566379 -0.087014372137976 -0.070026337859364 -0.054185848196598 -0.039408849072862 -0.025606589965318 -0.012783904908069 -0.00098569207539984 0.0098171651840035 0.019719283272132 0.028835098275347 0.037345110436543 0.045225068406 0.052510024391114 0.059402779107684 0.065860854099856 0.071974902648849 0.077805958121614 0.083384856041536 0.08871037478039 0.093879615176434 0.098786806872751 0.10352076231824 0.10797612321068 0.11218541187828 0.11616674233208 0.12001292793755 0.12379120213404 0.12748357508921 0.13096689099694 0.13419316369666 0.13728377739647 0.14040689971668 0.1433421981876 0.14615313399952 0.14880524130031 0.15125054212058 0.15343360650256 0.15539353007098 0.15706951424461 0.15865422718731 0.15997937911449 0.16089235114301 0.16142019497564 0.16169934309896 0.16160860032103 0.16130501876795 0.16090513654187 0.16051667425109 0.16008833122458 0.15978988649354 0.15947178593879 0.15898347335602 0.15833851607565 0.15751970095822 0.15645560388073 0.15512144086877 0.15353094532035 0.15171390658706 0.14942895120519 0.14662570333815 0.14328059157482 0.13940015249512 0.13491011375228 0.12982025825447 0.12408946189964 0.1176668158376 0.11056305794355 0.10289846576499 0.09472058733732 0.085997857696972 0.076839825973446 0.06713726064957 0.057024795449832 0.046566309987954 0.035701504811941 0.024515091014696 0.012905236413351 0.00074672939487384 -0.011875417916864 -0.024913336532667 -0.038456499926295 -0.052448068252222 -0.066739906764158 -0.081635410018702 -0.097337733202766 -0.11359832790037 -0.1302060408637 -0.14714816900613 -0.16465700663291 -0.18285899291342 -0.2015879337958 -0.22078793839794 -0.24055691222937 -0.26144267333597 -0.28421128338928 -0.18112316257039 -0.1567841240851 -0.13414028972639 -0.11309533874633 -0.09353429060892 -0.075211316549449 -0.05803204848314 -0.041998884286933 -0.027034335738201 -0.013045615211523 -4.6810933000977e-05 0.01190210761967 0.022860339521958 0.032899698097053 0.042137974323975 0.050764546404559 0.058747390519972 0.066130609272765 0.073124908050248 0.07965784317124 0.085849384642213 0.09174531606195 0.097391364883875 0.10277926214814 0.10800687708215 0.11297082930638 0.11775220228058 0.12224331578336 0.1264714957098 0.1304813439935 0.1343565775087 0.13814969022769 0.14186029040343 0.14535489454236 0.14858385274343 0.15168218551472 0.15481802862567 0.15776746471712 0.16058487689793 0.16323935214458 0.16568633694655 0.16786926453353 0.16982267243795 0.17149196059641 0.17307978208489 0.17441174116114 0.17532372957408 0.17587306370872 0.17616279587092 0.17608826817642 0.17580091879646 0.17542569173141 0.17506394218846 0.17467286687189 0.17440817219594 0.17414768649469 0.1737150507161 0.17314084240997 0.17238618994273 0.17140173971255 0.17013269654752 0.16860131136475 0.16683474069905 0.16460392967291 0.16183855274666 0.15853362285541 0.15468058457468 0.15020960026708 0.14511516502055 0.13937399636015 0.13292223562319 0.12577524341967 0.11806831006403 0.10983687529147 0.10105751029133 0.091823145448045 0.082038090452671 0.071824511081954 0.061267377906893 0.050302405229865 0.038991897377888 0.027271606931969 0.014973997978592 0.0021800501408893 -0.011023261386668 -0.02474422846749 -0.038939505115826 -0.053446595911025 -0.068543334226455 -0.084490685100986 -0.10100621256505 -0.11786902430981 -0.13506375096728 -0.1528325081078 -0.17128729959113 -0.19026133078076 -0.20968734538408 -0.22966341371679 -0.25073787975763 -0.27372124508356 -0.17036855161226 -0.14581477050808 -0.12295511288857 -0.10170345681491 -0.081937800860287 -0.063406805481023 -0.046028739616384 -0.02979603906086 -0.014633916540042 -0.00045023577453571 0.012734491758901 0.024841845458678 0.035960934129544 0.046143940184424 0.055510143856172 0.064260054702243 0.072350338788272 0.079837488326303 0.086928571489433 0.093542809416818 0.099814611722425 0.10577875154996 0.11148949682017 0.11694919101395 0.12223239201221 0.12725397706997 0.13208442255421 0.13660808165242 0.14085701460832 0.14490722901668 0.14880681611133 0.15260826597539 0.15633606547883 0.15984204748049 0.16307971151125 0.16618664948488 0.16933619898765 0.17229490276216 0.17512004361974 0.17777481352368 0.18022600075161 0.1824043665242 0.18435451528325 0.18601205776723 0.1876010468631 0.18894177740252 0.18986012062253 0.19042309779435 0.19072312291304 0.19066649129535 0.19039839729488 0.19004774138159 0.18971368970104 0.18936903242907 0.18913920650365 0.18893653138939 0.18856355248227 0.18806033163524 0.18737204045822 0.18647662920471 0.18526999343542 0.18380921618179 0.18209239139104 0.17991478596222 0.17718636074326 0.17393412436095 0.17010734389769 0.1656584938826 0.1605531473393 0.15480824121532 0.14831742404186 0.1411449925635 0.13338228214079 0.12509612757845 0.11625966091913 0.10695005805364 0.097079940221422 0.086769663437886 0.076108647466004 0.065039623943568 0.053605927903239 0.041764977081445 0.029321060168457 0.016353773756198 0.002984016792033 -0.010926011281984 -0.025323927088513 -0.040051884570357 -0.055375264937085 -0.071574463653933 -0.088355940703383 -0.10548638672815 -0.12295008934023 -0.14098271549529 -0.15970254297891 -0.17893103312866 -0.19859344673111 -0.21877870383624 -0.24004627611021 -0.26323696693409 -0.15963152370454 -0.13486204629492 -0.11178019528778 -0.090315387038919 -0.070338025075106 -0.05159101396302 -0.034003196782868 -0.017564049258917 -0.0021948855781516 0.012190571652947 0.025570572016261 0.037843487957529 0.049126866505112 0.059462161672636 0.068964044128655 0.07784050137321 0.086041327905758 0.093636587053205 0.10082170526892 0.10752300094629 0.11387958622014 0.11991747852663 0.1256896041987 0.13122527276205 0.13656241704959 0.14164482091577 0.1465207143211 0.15108421435296 0.15535201280606 0.15944846888637 0.16336406344081 0.16717726179292 0.1709183642413 0.17443912683088 0.17768685072617 0.1808091068514 0.18396467265547 0.18693399138347 0.18976140916556 0.19241671258866 0.19487019756911 0.19705466276826 0.19899534399217 0.20064272972935 0.20223251181121 0.20357427336955 0.20450834056013 0.20508432110656 0.20539085562555 0.20535365827933 0.20510901751603 0.20478194403234 0.20447731771027 0.20417664238711 0.20398484127885 0.20384198107043 0.20354032828022 0.2031030971414 0.20248672278513 0.20168351914774 0.20053824778344 0.19915239963788 0.19749936340415 0.19537289476646 0.19268974415548 0.18947991000155 0.18567820592167 0.18125321018305 0.17615346615331 0.17039123549135 0.16386547335887 0.1566685999199 0.14884323435837 0.1405088121856 0.13161515339401 0.1222258434051 0.11227028415967 0.1018630243376 0.091091481096121 0.079919757850855 0.068355567376249 0.05639705368951 0.043799016310973 0.03066134417298 0.017111633044358 0.0030093561671816 -0.011599550125643 -0.026546933318081 -0.04211833484792 -0.058576507998262 -0.075632704681346 -0.093047535673549 -0.1107911757246 -0.12909743038629 -0.14809330001067 -0.16758657556662 -0.18749469412021 -0.20789431828177 -0.22935654521357 -0.25275961125361 -0.14890661893281 -0.12391449577527 -0.10060434896752 -0.078920064919796 -0.058721483616544 -0.03975419138948 -0.021946879180606 -0.0052937576972545 0.010292490806681 0.024887757375086 0.038467707415443 0.050914654831094 0.062365452850774 0.072858903292134 0.082500119117203 0.091508363422709 0.099829099479995 0.10753007365825 0.11481047077435 0.12160277915375 0.12804439535563 0.13415691933658 0.13999100470005 0.14560735856843 0.15099534897449 0.15614581198693 0.16106077897323 0.16566497855981 0.16995303053882 0.17409903105091 0.17802785682009 0.18185624840104 0.18560765707204 0.18914162592463 0.19240317788343 0.1955416754487 0.19869711997118 0.20167842289932 0.20450471710477 0.20716462877052 0.20961651864567 0.21180861324177 0.21374155234971 0.21537995035997 0.21696151537349 0.21830814309075 0.21925837953279 0.21985120996611 0.22016493026928 0.22014521521951 0.21992866872672 0.21962228868433 0.21935240354089 0.21909835646551 0.21893846815241 0.21885906291657 0.21864083658635 0.21826617962855 0.21772505998431 0.21701769670877 0.21594170011341 0.21463067804621 0.21304529150148 0.21097716015091 0.2083336916441 0.2051696016799 0.20138991375969 0.19699107783006 0.19190085486519 0.18611710569443 0.17956459409335 0.1723322704871 0.16445157297045 0.15606700256099 0.14712725982942 0.13765313043007 0.12761055084283 0.11710394406172 0.10621376530873 0.094937935253277 0.083248079778641 0.071166318649353 0.058412840244202 0.045101608937329 0.031359493900938 0.017073291166928 0.0022414925985014 -0.012935609378448 -0.028762543079047 -0.045492025441985 -0.062831924124821 -0.080546151803976 -0.09857837470821 -0.11716734271856 -0.13645050006981 -0.15622022983183 -0.17637912853593 -0.19700030738313 -0.21865763472224 -0.24225184445891 -0.13821246250333 -0.11296334630461 -0.089417475379958 -0.067507541650993 -0.047081444839649 -0.027885322700407 -0.0098512508930075 0.0070274299257187 0.022834603008638 0.037647396252011 0.051434326274802 0.06406067138337 0.075683624316481 0.086336874670591 0.096126470616103 0.10526657687297 0.11370772781255 0.12152391582878 0.12889590375118 0.13578134084848 0.14230602873465 0.14849986006291 0.15439357563455 0.16008994327331 0.1655285