# vtk DataFile Version 3.0
d-2__ created by libgimli-v1.5.0-1-g5991b6ac
ASCII
DATASET UNSTRUCTURED_GRID
POINTS 257 double
19.5	-0.25	0
19.643267391024	-0.375	0
19.690940791558	-0.19094079155751	0
22.625	-0.27380702240065	0
22.625	-0.13804348840204	0
22.518663902413	-0.18940103023301	0
22.458333333333	-0.087886572211468	0
22.416666666667	0	0
22.375	-0.13804348840204	0
22.291666666667	-0.087886572211468	0
22.333333333333	0	0
22.25	0	0
20.083333333333	0	0
20.041666666667	-0.13804348840203	0
20.125	-0.087886572211466	0
20.166666666667	0	0
20	0	0
20.708333333333	-0.13804348840203	0
20.666666666667	0	0
20.625	-0.087886572211466	0
20.208333333333	-0.07357428207177	0
20.75	0	0
20.791666666667	-0.087886572211464	0
20.333333333333	0	0
20.25	0	0
20.291666666667	-0.087886572211468	0
21.166666666667	0	0
21.208333333333	-0.07357428207177	0
21.25	0	0
20.416666666667	0	0
20.375	-0.13804348840204	0
20.458333333333	-0.087886572211468	0
21.291666666667	-0.087886572211468	0
21.333333333333	0	0
21.625	-0.13804348840204	0
21.518663902413	-0.18940103023301	0
21.625	-0.27380702240065	0
20.583333333333	0	0
22.916666666667	0	0
22.833333333333	0	0
22.875	-0.13804348840204	0
20.833333333333	0	0
20.875	-0.07357428207177	0
23.98747163413	-0.5056358037932	0
24.050519698408	-0.25547676721966	0
23.843533331918	-0.29816134131379	0
23.458333333333	-0.087886572211464	0
23.404607252882	-0.15094638411797	0
23.541666666667	-0.13804348840203	0
20.5	0	0
21.791666666667	-0.087886572211468	0
21.833333333333	0	0
21.75	0	0
21.231336097587	-0.18940103023302	0
21.125	-0.13804348840204	0
19.705488373266	-0.59091608366499	0
20.007921013115	-0.8717186506847	0
19.91135296792	-0.47048281487414	0
24.166666666667	0	0
24.208333333333	-0.087886572211464	0
24.25	0	0
21	0	0
20.916666666667	0	0
20.958333333333	-0.13804348840203	0
24.791666666667	-0.087886572211468	0
24.833333333333	0	0
24.75	0	0
21.041666666667	-0.087886572211464	0
21.083333333333	0	0
24.083333333333	0	0
24.125	-0.07357428207177	0
22.541666666667	-0.073574282071767	0
21.375	-0.13804348840204	0
21.416666666667	0	0
21.5	0	0
21.458333333333	-0.087886572211468	0
22.583333333333	0	0
22.666666666667	0	0
22.226291378505	-0.21877391554365	0
22.432011579996	-0.40775209656411	0
24.148002764253	-0.18940103023303	0
24.208717134119	-0.38392172835888	0
24.291666666667	-0.13804348840203	0
22.208333333333	-0.07357428207177	0
22.166666666667	0	0
22.125	-0.072182208352023	0
21.875	-0.13804348840204	0
20.237940586216	-0.15094638411797	0
21.916666666667	0	0
21.708333333333	-0.07357428207177	0
22.083333333333	0	0
22	0	0
22.041666666667	-0.13804348840203	0
20.190375288162	-0.21877391554366	0
21.958333333333	-0.087886572211464	0
20.541666666667	-0.073574282071767	0
20.571273919549	-0.15094638411796	0
20.317063962986	-0.25702488420529	0
21.541666666667	-0.073574282071767	0
22.5	0	0
23.583333333333	0	0
23.625	-0.087886572211466	0
22.791666666667	-0.087886572211468	0
20.203594889612	-0.40391444725954	0
21.583333333333	0	0
21.666666666667	0	0
22.75	0	0
22.958333333333	-0.087886572211464	0
23	0	0
23.041666666667	-0.13804348840203	0
22.708333333333	-0.07357428207177	0
23.083333333333	0	0
23.125	-0.087886572211466	0
23.166666666667	0	0
23.208333333333	-0.13804348840203	0
23.25	0	0
22.165334880767	-0.15260258505374	0
23.291666666667	-0.087886572211464	0
21.731336097587	-0.18940103023302	0
23.5	0	0
23.416666666667	0	0
23.333333333333	0	0
23.375	-0.07357428207177	0
23.666666666667	0	0
22.086941669094	-0.2859797646022	0
21.958333333333	-0.18219221742147	0
23.125	-0.18219221742148	0
23.228873378537	-0.27753669533404	0
23.708333333333	-0.07357428207177	0
23.041666666667	-0.23876614697008	0
22.958333333333	-0.18219221742147	0
23.833333333333	0	0
23.875	-0.13804348840204	0
23.916666666667	0	0
23.791666666667	-0.087886572211468	0
23.75	0	0
23.958333333333	-0.087886572211464	0
24	0	0
23.483730629652	-0.25702488420531	0
24.333333333333	0	0
24.375	-0.087886572211466	0
23.369620976373	-0.40603607246707	0
23.604159114629	-0.34842263547806	0
25.124752694808	-0.11296503030675	0
25	0	0
24.958333333333	-0.087886572211468	0
24.041666666667	-0.13804348840203	0
24.416666666667	0	0
24.458333333333	-0.07357428207177	0
24.875	-0.13804348840204	0
24.583333333333	0	0
24.541666666667	-0.13804348840203	0
24.625	-0.087886572211466	0
24.5	0	0
24.43533056908	-0.18940103023302	0
24.916666666667	0	0
24.385963434616	-0.36114994877356	0
24.708333333333	-0.07357428207177	0
24.666666666667	0	0
23.636111778917	-0.20065391017952	0
24.999752694808	-0.25100851870879	0
22.731336097587	-0.18940103023302	0
20.851997235747	-0.18940103023303	0
24.737940586216	-0.15094638411797	0
20.523708621495	-0.21877391554365	0
21.133853031742	-0.25547676721968	0
20.949480301592	-0.25547676721966	0
21.041666666667	-0.52911283384145	0
21.041666666667	-0.18219221742147	0
23.357041954828	-0.21877391554366	0
23.737940586216	-0.15094638411797	0
24.690375288162	-0.21877391554366	0
23.958333333333	-0.18219221742147	0
19.875	-0.11303967622539	0
19.75	0	0
20.650397296319	-0.25702488420526	0
21.292050467453	-0.38392172835888	0
21.414390113348	-0.63321254312708	0
21.469144028345	-0.36097200963104	0
21.848127708251	-0.28948918465343	0
22.848127708251	-0.28948918465343	0
22.726596951268	-0.4234584073117	0
23.731548923005	-0.26700761442393	0
24.817063962986	-0.25702488420529	0
20.031958747178	-0.33325463579056	0
20.523689393121	-0.44776195923934	0
23.184065504659	-0.43422319923747	0
23.545209981036	-0.61464357222601	0
24.552290248164	-0.29580321144285	0
25.25	0	0
20.800529041383	-0.37028063139366	0
23.130694908432	-0.28024272799092	0
22.907115884997	-0.43487734236883	0
25.5	-0.5	0
25.5	-0.25	0
25.356886217184	-0.375	0
25.308843572405	-0.19115642759521	0
25.5	0	0
21.681768476189	-0.55823447719905	0
23.041897355025	-0.3545575021244	0
22.950100433703	-0.28398118611486	0
23.746371622197	-0.43057135368151	0
23.045779100149	-0.5143168838031	0
21.615347366628	-0.83560735755964	0
21.971649595913	-0.56775148091581	0
22.235269600634	-0.41546210057925	0
22.346412380513	-0.73751448832674	0
22.007726950717	-0.98664640296265	0
20.322202955504	-0.72835150504623	0
23.798122080496	-0.68908130839227	0
24.703430397599	-0.40445925111313	0
24.914859484231	-0.44990795630246	0
23.247599241801	-0.70334449364573	0
25.053928463665	-0.58159990549132	0
25.221377875989	-0.67457110982012	0
25.225195424337	-0.49586438948828	0
24.530720924191	-0.4852517756918	0
24.323984230706	-0.57992151527177	0
19.84485407481	-1.2957460393421	0
19.743909551686	-0.8528010586154	0
24.746070739038	-0.72060716412098	0
23.604860290622	-0.8788438191921	0
23.043947453281	-1.1807973577914	0
23.54268225478	-1.3246684327942	0
23.849430697053	-0.99522786547226	0
24.043693421774	-0.75311160759413	0
22.849047319116	-0.69970565535729	0
25.000856094841	-0.87446921301307	0
25.5	-1	0
19.845623228308	-0.30002188546398	0
24.512369350266	-0.71824350459	0
24	-1.6666666666667	0
24.051778272566	-1.3024535658708	0
19.5	0	0
21.680522574649	-1.2514855461386	0
21.375	-1.6666666666667	0
21.75	-1.6666666666667	0
25.174325422113	-0.32450830281231	0
19.5	-0.5	0
20.747329141204	-0.71351083399284	0
19.5	-0.75	0
20.348572023727	-1.2023161679924	0
21.179597305363	-1.0673000334922	0
23.25	-1.6666666666667	0
19.5	-1	0
24.75	-1.6666666666667	0
25.013091550828	-1.3141602648437	0
24.625304590967	-1.106556793762	0
24.375	-1.6666666666667	0
24.189043391347	-0.96114657873573	0
22.064690440023	-1.391571216678	0
22.426745644615	-1.201505510398	0
19.5	-1.6666666666667	0
21	-1.6666666666667	0
20.25	-1.6666666666667	0
22.5	-1.6666666666667	0
25.5	-1.6666666666667	0
CELLS 429 1716
3	0	1	2	
3	3	4	5	
3	6	7	8	
3	9	10	11	
3	12	13	14	
3	14	15	12	
3	16	13	12	
3	17	18	19	
3	20	15	14	
3	7	10	8	
3	21	17	22	
3	23	24	25	
3	26	27	28	
3	29	30	31	
3	23	30	29	
3	28	32	33	
3	34	35	36	
3	19	18	37	
3	38	39	40	
3	22	41	21	
3	41	22	42	
3	43	44	45	
3	18	17	21	
3	46	47	48	
3	31	49	29	
3	50	51	52	
3	53	27	54	
3	55	56	57	
3	58	59	60	
3	61	62	63	
3	64	65	66	
3	67	68	61	
3	67	61	63	
3	69	70	58	
3	4	71	5	
3	72	73	33	
3	5	6	8	
3	74	73	75	
3	73	72	75	
3	76	4	77	
3	78	79	8	
3	80	81	82	
3	83	84	85	
3	50	86	51	
3	25	87	30	
3	86	88	51	
3	52	89	50	
3	90	91	92	
3	93	87	14	
3	94	92	91	
3	95	49	31	
3	9	8	10	
3	84	83	11	
3	19	95	96	
3	91	88	94	
3	25	30	23	
3	9	11	83	
3	97	30	87	
3	98	74	75	
3	99	71	76	
3	100	48	101	
3	33	32	72	
3	99	7	6	
3	41	42	62	
3	102	40	39	
3	71	99	6	
3	97	93	103	
3	104	34	105	
3	39	106	102	
3	74	98	104	
3	38	107	108	
3	107	109	108	
3	35	75	72	
3	106	110	102	
3	34	98	35	
3	28	27	32	
3	111	112	113	
3	109	111	108	
3	59	82	60	
3	113	114	115	
3	116	9	83	
3	114	117	115	
3	50	89	118	
3	119	120	46	
3	119	48	100	
3	110	106	77	
3	120	121	122	
3	89	52	105	
3	101	123	100	
3	124	92	125	
3	54	26	68	
3	114	126	127	
3	101	128	123	
3	129	109	130	
3	131	132	133	
3	134	131	135	
3	48	119	46	
3	115	117	121	
3	136	137	133	
3	47	138	48	
3	60	82	139	
3	82	140	139	
3	141	142	138	
3	143	144	145	
3	122	47	46	
3	146	137	136	
3	113	112	114	
3	134	132	131	
3	147	140	148	
3	149	65	64	
3	150	151	152	
3	150	153	151	
3	148	154	151	
3	147	148	153	
3	65	149	155	
3	59	58	70	
3	155	145	144	
3	82	81	156	
3	145	155	149	
3	146	69	137	
3	157	158	152	
3	154	140	82	
3	147	139	140	
3	101	48	159	
3	149	160	145	
3	102	110	161	
3	150	152	158	
3	42	22	162	
3	157	163	64	
3	5	71	6	
3	4	76	71	
3	85	84	90	
3	116	83	85	
3	96	31	164	
3	49	95	37	
3	15	20	24	
3	25	20	87	
3	14	13	93	
3	25	24	20	
3	165	166	167	
3	63	168	67	
3	54	68	67	
3	17	162	22	
3	63	62	42	
3	35	98	75	
3	34	104	98	
3	26	54	27	
3	63	42	162	
3	88	86	94	
3	125	94	86	
3	105	34	89	
3	118	89	34	
3	77	4	110	
3	161	110	4	
3	111	109	112	
3	126	112	109	
3	47	117	169	
3	120	122	46	
3	38	40	107	
3	130	107	40	
3	121	117	122	
3	117	114	169	
3	80	70	146	
3	123	128	135	
3	134	128	170	
3	159	48	138	
3	134	135	128	
3	163	152	171	
3	158	157	66	
3	154	148	140	
3	151	153	148	
3	69	146	70	
3	172	44	146	
3	9	78	8	
3	161	40	102	
3	90	92	85	
3	116	78	9	
3	92	94	125	
3	5	79	3	
3	164	31	30	
3	19	37	95	
3	173	16	174	
3	164	175	96	
3	17	19	96	
3	53	165	176	
3	53	32	27	
3	118	86	50	
3	175	17	96	
3	176	177	178	
3	118	36	179	
3	78	116	124	
3	180	3	181	
3	169	114	127	
3	114	112	126	
3	134	170	132	
3	133	132	136	
3	44	80	146	
3	146	136	172	
3	82	59	80	
3	152	151	171	
3	64	66	157	
3	80	59	70	
3	64	163	149	
3	170	101	159	
3	136	132	172	
3	85	92	116	
3	124	116	92	
3	97	164	30	
3	166	168	63	
3	14	87	20	
3	87	93	97	
3	117	47	122	
3	47	169	138	
3	101	170	128	
3	142	182	159	
3	132	45	172	
3	149	163	183	
3	31	96	95	
3	162	166	63	
3	184	93	13	
3	97	185	164	
3	156	154	82	
3	141	127	186	
3	142	141	187	
3	44	172	45	
3	152	163	157	
3	163	171	183	
3	103	93	184	
3	53	72	32	
3	154	188	151	
3	189	144	143	
3	185	175	164	
3	175	190	162	
3	118	179	86	
3	125	179	124	
3	109	107	130	
3	126	129	191	
3	161	180	40	
3	127	126	191	
3	169	141	138	
3	141	169	127	
3	125	86	179	
3	180	181	192	
3	193	194	195	
3	196	194	197	
3	149	183	160	
3	143	145	160	
3	167	176	165	
3	162	17	175	
3	198	178	177	
3	72	53	176	
3	118	34	36	
3	185	97	103	
3	126	109	129	
3	186	191	199	
3	180	130	40	
3	130	180	200	
3	161	4	3	
3	129	199	191	
3	138	142	159	
3	45	182	201	
3	130	200	129	
3	192	202	199	
3	202	186	199	
3	129	200	199	
3	142	187	201	
3	191	186	127	
3	180	192	200	
3	199	200	192	
3	180	161	3	
3	142	201	182	
3	54	67	168	
3	203	204	198	
3	79	5	8	
3	78	124	205	
3	182	170	159	
3	151	188	171	
3	185	190	175	
3	204	206	205	
3	201	43	45	
3	43	81	44	
3	207	206	204	
3	57	56	208	
3	44	81	80	
3	209	201	187	
3	35	72	178	
3	57	208	103	
3	13	16	173	
3	183	210	211	
3	141	212	187	
3	45	170	182	
3	213	214	215	
3	205	79	78	
3	216	156	217	
3	45	132	170	
3	196	197	189	
3	218	56	219	
3	178	198	36	
3	188	156	216	
3	220	211	210	
3	57	103	184	
3	204	179	198	
3	165	53	54	
3	221	222	223	
3	209	224	225	
3	43	217	81	
3	226	212	202	
3	214	227	228	
3	211	160	183	
3	210	171	188	
3	226	192	181	
3	193	215	214	
3	3	79	181	
3	205	206	79	
3	186	212	141	
3	212	186	202	
3	173	229	13	
3	167	177	176	
3	72	176	178	
3	206	226	181	
3	213	227	214	
3	217	230	216	
3	196	195	194	
3	231	232	223	
3	227	213	220	
3	206	181	79	
3	187	212	221	
3	173	174	2	
3	13	229	184	
3	174	233	2	
3	234	235	236	
3	196	189	143	
3	233	0	2	
3	160	237	143	
3	237	195	196	
3	1	0	238	
3	173	2	229	
3	177	203	198	
3	198	179	36	
3	239	190	185	
3	35	178	36	
3	192	226	202	
3	195	215	193	
3	188	216	210	
3	220	210	216	
3	213	237	211	
3	154	156	188	
3	124	179	204	
3	221	212	222	
3	240	219	55	
3	54	168	165	
3	196	143	237	
3	195	237	215	
3	55	1	238	
3	167	166	190	
3	2	1	229	
3	1	55	57	
3	190	166	162	
3	204	205	124	
3	241	208	56	
3	242	167	239	
3	223	222	243	
3	156	81	217	
3	160	211	237	
3	213	215	237	
3	183	171	210	
3	228	193	214	
3	219	244	218	
3	56	55	219	
3	184	229	57	
3	57	229	1	
3	220	213	211	
3	245	246	247	
3	230	220	216	
3	220	247	227	
3	248	247	232	
3	228	227	246	
3	55	238	240	
3	249	230	217	
3	247	249	232	
3	166	165	168	
3	221	209	187	
3	43	225	217	
3	209	43	201	
3	247	246	227	
3	190	239	167	
3	207	204	203	
3	208	185	103	
3	242	203	177	
3	207	250	251	
3	240	244	219	
3	252	218	244	
3	224	209	221	
3	217	225	249	
3	43	209	225	
3	241	242	239	
3	167	242	177	
3	253	242	241	
3	56	218	241	
3	212	226	222	
3	249	225	224	
3	234	250	207	
3	239	185	208	
3	231	223	243	
3	224	232	249	
3	252	254	218	
3	241	218	254	
3	253	241	254	
3	239	208	241	
3	206	207	251	
3	224	221	223	
3	223	232	224	
3	248	245	247	
3	234	207	203	
3	250	255	251	
3	251	226	206	
3	255	243	222	
3	249	247	230	
3	220	230	247	
3	203	242	234	
3	235	242	253	
3	255	222	251	
3	226	251	222	
3	232	231	248	
3	245	256	246	
3	228	246	256	
3	242	235	234	
3	234	236	250	
3	255	250	236	
CELL_TYPES 429
5 5 5 5 5 5 5 5 5 5 5 5 5 5 5 5 5 5 5 5 5 5 5 5 5 5 5 5 5 5 5 5 5 5 5 5 5 5 5 5 5 5 5 5 5 5 5 5 5 5 5 5 5 5 5 5 5 5 5 5 5 5 5 5 5 5 5 5 5 5 5 5 5 5 5 5 5 5 5 5 5 5 5 5 5 5 5 5 5 5 5 5 5 5 5 5 5 5 5 5 5 5 5 5 5 5 5 5 5 5 5 5 5 5 5 5 5 5 5 5 5 5 5 5 5 5 5 5 5 5 5 5 5 5 5 5 5 5 5 5 5 5 5 5 5 5 5 5 5 5 5 5 5 5 5 5 5 5 5 5 5 5 5 5 5 5 5 5 5 5 5 5 5 5 5 5 5 5 5 5 5 5 5 5 5 5 5 5 5 5 5 5 5 5 5 5 5 5 5 5 5 5 5 5 5 5 5 5 5 5 5 5 5 5 5 5 5 5 5 5 5 5 5 5 5 5 5 5 5 5 5 5 5 5 5 5 5 5 5 5 5 5 5 5 5 5 5 5 5 5 5 5 5 5 5 5 5 5 5 5 5 5 5 5 5 5 5 5 5 5 5 5 5 5 5 5 5 5 5 5 5 5 5 5 5 5 5 5 5 5 5 5 5 5 5 5 5 5 5 5 5 5 5 5 5 5 5 5 5 5 5 5 5 5 5 5 5 5 5 5 5 5 5 5 5 5 5 5 5 5 5 5 5 5 5 5 5 5 5 5 5 5 5 5 5 5 5 5 5 5 5 5 5 5 5 5 5 5 5 5 5 5 5 5 5 5 5 5 5 5 5 5 5 5 5 5 5 5 5 5 5 5 5 5 5 5 5 5 5 5 5 5 5 5 5 5 5 5 5 5 5 5 5 5 5 5 5 5 5 5 5 5 5 5 5 5 5 5 5 5 5 5 5 5 5 5 5 5 5 
CELL_DATA 429
SCALARS Coverage double 1
LOOKUP_TABLE default
1.6137433619085 2.6295043336921 3.0653023360516 3.2729797710399 2.4121631859323 2.7493457517429 2.8571190850973 2.8373869418926 2.6419491568703 3.2047795420079 2.9196433454413 3.0897199622578 3.1198020441353 2.7501291151123 2.8563002383416 3.1055933172905 2.5575198942444 2.923703729933 3.1511842590791 3.4418809517589 3.0646782667015 2.136300495464 3.4122537885169 2.7997912385026 3.1202954663552 3.5555567516114 2.5629375627574 1.2433393458771 3.2998870093936 3.2107221799135 2.9166236843891 3.4227454973766 3.1925741718889 3.1321164492527 2.8103265667164 3.1181803855449 2.8219027372877 3.3181287203306 3.0012859885364 3.176647707787 2.5095565475619 2.460048966626 2.9721269097551 3.0979014952 2.4696435853416 3.1136348311321 3.0562352468163 3.4587513858873 2.3894319308393 2.9319839016607 2.7169934081948 3.0070045151176 3.2287075652938 2.573605314488 3.3171981040063 2.6410752023286 2.8097092479082 2.3690628769941 2.892857290736 3.4055931666683 3.0471336583801 2.8539680010209 3.4082736774337 3.1317803058094 2.9364581496026 2.9028620331811 2.0752791395957 3.0873943937025 3.3150944818061 3.3363796779264 3.4190791929662 3.1258071604189 2.9076105091796 2.8925578543593 2.7011902494481 2.6836544999972 3.1666987841108 3.2314006573393 2.9165791395932 3.5275889669581 2.7439661586414 3.004940781201 2.9436705298212 3.4265487902747 3.3736376102474 3.3904179145719 3.238620724259 3.5595176840036 3.22243685674 2.6872536694649 2.9239500024374 2.6252446808601 3.1700718980421 2.6631764226935 3.1408360660632 3.4518706840111 2.962310752565 3.5067008586413 3.3838909086235 2.6094444301532 3.4325138991543 3.0148988877666 2.2636491977309 2.5669240502112 2.919372773544 2.9847265777783 3.0599065887494 3.0571895134451 2.8648310121242 2.5254188482267 2.7983851322289 3.1805539605813 2.6129809111616 3.1060926222737 2.6054014461477 3.0063781234928 3.0560111282573 2.3062231514433 2.4156825569056 3.4125542641899 2.7802979757206 2.8120925916119 3.0185212847911 2.7831316189983 2.3213380721253 2.779011795618 2.8644095032132 2.7618753688407 2.5366841274924 2.8107122435098 3.0363534821719 3.005420710229 2.8825481580553 2.4365900086765 3.0934068014869 3.0803282441774 2.508355366278 2.286250335975 2.621269378056 2.2625135313994 2.781912870328 2.9969991100304 2.7458479894871 2.8887656708006 2.7725272526585 2.9223779063709 2.7352354704226 2.6404683851751 2.9447794640709 2.7318931941158 3.0907927103178 2.8084517319904 3.0503492919947 2.8223131520028 2.9218378606084 2.7086475488397 2.7253726152523 3.1299452784863 3.0665279698184 2.899495380257 3.1516459216742 2.8058711141397 2.764045564238 3.4580397593284 2.8903312109389 2.5756194371466 3.027824740034 2.5791548445368 2.9851555567363 2.6462215711576 2.6708221019028 3.0106784691232 2.5522977740505 2.7673070272419 2.7429544551565 3.0114359246526 2.6789266523319 2.8719907151734 2.4475551406745 2.5111319017473 2.780925565262 2.6809001099606 2.3300145228534 2.6322388006483 2.3311538329932 2.5754883287042 2.8345641551185 2.4525124262891 2.0823039494441 2.5330305512018 2.5975039933241 2.3630185452738 2.6106335062108 2.8541048440236 2.8084111889967 3.0139273202478 2.5101079289409 2.7637773211543 2.784263818745 2.6825466384305 2.7623307622884 2.7361599997624 2.4382328529924 2.7956674212289 2.729959239089 2.9554590354524 2.8171688999133 2.3263488635865 2.6234746255034 2.4924490405255 2.2496975862202 2.9169433022033 2.5424944961565 3.0138240297666 2.3683746929121 2.4704122383857 2.2550020790924 2.5701438277452 2.4930120544935 2.0819956866669 2.132846199838 2.4957087131104 2.2590074246735 2.0870239144481 2.3798692715818 2.8131420575294 2.3107831519824 1.9640330505169 2.7731178869692 2.4417984866435 2.6940641551926 2.1701335238949 2.3530929238345 2.6769852519375 2.5235280139163 2.7804325455595 2.4955029345147 2.5964302020552 2.4898331537491 2.3758612413387 2.3953720012819 2.5914342527351 2.2739052873694 1.4761023007934 1.6706481643712 2.2291335289373 2.3348879601402 2.1619815490778 2.5529278462097 2.0176952206584 2.4894503193589 2.6323249628575 1.9722690629534 2.5876670590942 2.297864082384 2.6770703900067 2.504464820286 2.6458580704179 2.4010536317234 2.3726912509362 2.2052241745852 2.5341613055786 2.1987984968997 2.1936945022118 2.4151066973306 2.0401456957394 2.349318329658 2.3629013617988 2.3074748041395 2.5076235781919 2.1930734259066 2.7972943822038 1.8176936723885 2.5906043698128 2.3866140745522 2.5462574722389 2.4877309690287 2.1456376757784 1.9529918265263 2.0539957539415 2.0851249249551 1.6643410222511 1.2795531041012 2.3272167945623 1.8741790352322 2.6559989207326 1.5595221383695 2.415443895155 1.9268945007426 1.9636507948079 2.4228415990624 1.4682762632752 2.3161927165273 1.8748075287297 2.5208272634728 1.8562919299895 0.92180040932861 2.2292584463497 2.0320910658779 1.7308700582425 1.7541027776041 2.1388249145794 2.462844178339 1.2743122710369 1.5620642727789 1.9018802219518 1.9223378673988 1.1419945522952 2.0145447373597 2.16736954189 2.0835100658307 1.4079926607243 2.303039974644 2.0455646845333 2.0820571571388 2.044674267274 2.1047350898516 1.9487036177154 2.3822541509443 1.9149379946116 1.3709047939845 1.6838443224218 1.6438452502299 0.89006241449071 1.3963469506074 2.0522577484573 1.7505041229782 2.0918704884876 2.0136026939616 1.8828254260722 0.78359198944647 2.0960245650529 1.692165463174 2.0717693280658 1.7524440861198 1.4404039419659 1.9652391613292 1.7501084594688 2.3055699274616 1.849451269326 2.4371586596065 2.04860490095 1.4648374860038 1.9758327970015 1.7459803175511 1.716176873525 2.2471930517715 2.2660443079885 1.5600099536313 1.016835207945 2.6238341071451 2.0059436038233 1.6596659232701 1.3075093417144 2.1885724015305 1.7306388344541 1.4210370722683 2.3626166506435 2.1894992310247 1.0770785355167 1.5324492101378 1.0262062583398 1.9819627316891 1.9362672051417 1.6239444171734 2.0793527459851 1.1810015603848 0.81137302500211 1.0427021170378 1.755581988636 1.6253459044128 1.6049834425887 0.80604911503203 1.5970816688609 1.2585606773975 0.85055763590524 0.99107550619635 1.1361943571697 1.5082845443248 1.0953387429902 2.4715596842148 1.7174895017839 1.7349671599505 1.8897632024701 1.0138247903426 1.8942103883999 1.606326700316 1.6840241211752 1.4883439663958 1.166372063968 0.89230589412969 0.6235559839397 1.5407406235256 1.5409560352439 1.7329822993302 1.1345464276338 1.6040942589949 0.83763055461636 0.86068283191354 1.6449042108788 1.4021533769671 1.1207724372607 1.5690082367493 0.83966205784727 1.2117324344611 0.56993818076305 0.7110601308268 0.6393453093513 1.2113682542366 1.4349266140469 1.3279780180927 1.1198430906306 0.73856688211727 1.3079475448916 0.97459452452017 1.5814289085644 0.92784743466654 1.2805662614713 1.3450861335847 1.2344559225174 0.78443200769461 1.0648053288716 1.4105113029793 0.71925707328723 0.63878423253573 0.70185207578577 0.93784946504686 0.90141747281752 0.81664041493387 
SCALARS Marker double 1
LOOKUP_TABLE default
0 1 2 3 4 5 6 7 8 9 10 11 12 13 14 15 16 17 18 19 20 21 22 23 24 25 26 27 28 29 30 31 32 33 34 35 36 37 38 39 40 41 42 43 44 45 46 47 48 49 50 51 52 53 54 55 56 57 58 59 60 61 62 63 64 65 66 67 68 69 70 71 72 73 74 75 76 77 78 79 80 81 82 83 84 85 86 87 88 89 90 91 92 93 94 95 96 97 98 99 100 101 102 103 104 105 106 107 108 109 110 111 112 113 114 115 116 117 118 119 120 121 122 123 124 125 126 127 128 129 130 131 132 133 134 135 136 137 138 139 140 141 142 143 144 145 146 147 148 149 150 151 152 153 154 155 156 157 158 159 160 161 162 163 164 165 166 167 168 169 170 171 172 173 174 175 176 177 178 179 180 181 182 183 184 185 186 187 188 189 190 191 192 193 194 195 196 197 198 199 200 201 202 203 204 205 206 207 208 209 210 211 212 213 214 215 216 217 218 219 220 221 222 223 224 225 226 227 228 229 230 231 232 233 234 235 236 237 238 239 240 241 242 243 244 245 246 247 248 249 250 251 252 253 254 255 256 257 258 259 260 261 262 263 264 265 266 267 268 269 270 271 272 273 274 275 276 277 278 279 280 281 282 283 284 285 286 287 288 289 290 291 292 293 294 295 296 297 298 299 300 301 302 303 304 305 306 307 308 309 310 311 312 313 314 315 316 317 318 319 320 321 322 323 324 325 326 327 328 329 330 331 332 333 334 335 336 337 338 339 340 341 342 343 344 345 346 347 348 349 350 351 352 353 354 355 356 357 358 359 360 361 362 363 364 365 366 367 368 369 370 371 372 373 374 375 376 377 378 379 380 381 382 383 384 385 386 387 388 389 390 391 392 393 394 395 396 397 398 399 400 401 402 403 404 405 406 407 408 409 410 411 412 413 414 415 416 417 418 419 420 421 422 423 424 425 426 427 428 
SCALARS Resistivity double 1
LOOKUP_TABLE default
80.516176114802 72.313789431449 78.015823133755 52.17822107214 60.943540709449 74.91887053818 58.120991278937 48.443785181623 73.835880949859 80.576846710498 66.872799964713 47.438283426878 32.628627113517 58.472779139534 58.125622524475 87.561532265081 69.484905233809 34.370466277961 100.57071628155 45.795016367242 41.988341427667 152.59334009496 72.230782184448 69.818391824197 61.295579181872 65.640169882432 42.176508116369 163.46893184613 32.323658041354 32.515105577655 38.772997319861 136.58346817451 87.485932474488 35.89022982528 67.630772007795 157.82912862496 74.122536531026 134.35640740658 135.33781028022 80.014737201729 79.44477341021 105.21248102936 68.526885052664 57.681260938504 50.978009545909 40.484858866341 77.379510616733 181.08009098914 51.569524138299 67.722291499051 38.365663198836 64.457076689456 55.57779620082 36.28422521634 30.910114822992 51.341807230443 48.073829575021 47.326374317566 77.296597707441 63.913315296472 71.675433286163 102.11947610953 74.342640164283 33.057817520637 74.806358785422 64.433045186959 50.35475587549 51.547648603252 65.814901574319 46.968616400823 124.69014192215 82.717736192378 96.445674628744 66.49419246521 61.768204596506 48.868011655407 63.249870661187 44.818893556441 64.782880917528 104.64903980474 51.607353814132 83.793090751357 75.955454797808 56.023713465111 66.940330316527 75.975016495901 53.555307475581 74.589723598295 74.0533782526 64.483680044987 58.466811727455 84.764843482663 75.81014414759 78.941808839573 32.676640992937 35.964747642219 62.705302244424 57.949644742751 28.968479250277 83.988754129466 130.61015559594 96.104498591638 114.70144192866 89.565035295832 64.509609253833 39.936499659846 79.660152360011 39.462800206683 53.690538945973 45.826746676895 191.92631336618 222.51280564719 68.136866739519 41.415917872923 47.684069341014 35.144864192588 71.743022731333 127.30160589192 63.702979103419 49.001816342858 170.23576381906 85.457527788421 72.043482745926 80.130452197579 79.475466268783 66.649674589666 218.77156670473 54.381176846086 84.026447954045 66.305910252663 69.51241907911 93.463865834926 62.279631209094 45.558599455598 23.821838709919 79.842425302766 56.5782875668 50.304771411193 60.467567778124 72.541557289259 78.515281154539 86.589025038509 66.623174087875 36.667156817058 75.746954510196 49.843123646478 39.541335975847 52.790459331046 37.572241823706 52.618667455304 64.713294763816 71.568994336525 77.166485156553 71.09871396025 54.914446269711 66.93265243496 83.746808750978 56.653659759658 107.90130900061 89.681748277862 57.692165059508 90.264442297904 51.544700113437 79.227975484514 63.382984453374 90.030762453512 58.023389950403 111.28992198278 153.89307932369 63.891613996196 73.902823420298 42.282776322072 76.237273838616 64.012017221214 68.372684554379 112.54647075498 56.051731771516 61.184642047416 81.556087506314 50.118613887013 28.799695524702 27.80954572122 51.749371868898 45.375302812168 57.163227973591 48.668464356292 70.224782221079 54.369507199828 95.144227113899 79.171760355084 65.960711297742 82.003681704458 93.039857041932 76.555782627043 60.03840289106 35.691597508069 76.608475215492 54.771196972669 68.76202124239 125.95408436898 80.905177869922 47.596294756361 66.093813771436 83.598343095822 54.716686346533 75.193386710266 65.960104274546 47.142538111293 71.998397179485 60.437690562066 48.335108989797 67.696693024378 91.007405847081 73.403847512809 116.80450907723 81.145354199703 79.610845271027 39.202922422292 68.579071013496 46.136805181829 51.337713007473 103.84541901931 94.739198953576 129.4881000964 102.04518625848 121.06094021886 95.260365556235 51.554588947667 67.655755187535 83.16088807218 102.23191563567 58.051326743697 76.812200063821 72.099342166121 72.496588722484 83.663068279804 79.120714723453 70.920700295972 83.416103625695 102.68069817364 98.452751890919 64.775387181979 85.657213543427 127.14056566472 114.77158345606 85.960280038192 91.448918594189 71.929241176116 67.393759752214 114.05581161238 62.352008428875 72.587212965402 58.493198830425 74.447342955121 83.73239885558 78.337312949624 78.399638454549 71.405465656395 80.198180517591 108.18106301176 140.0842782785 78.484726172354 85.926010628963 86.836598780821 79.271063309174 148.10166931198 86.777318749146 80.306572982243 80.42495246155 73.105292218299 137.58753263763 74.089568319186 176.72930479043 79.529113338352 87.839050684976 103.01782569037 99.583962963603 78.912745612574 162.00556180893 167.89806547004 158.04348606262 245.76256085744 159.53079710021 113.53792828606 173.12012713477 83.033492217715 99.305957956164 34.81920571758 108.73980346398 123.36691531517 109.37182331605 147.08742836412 98.221428252748 151.81107877992 85.016449508383 110.03160502653 269.19466420519 93.915843304581 122.09934969889 126.96458445804 67.760557212394 118.98457330086 49.755652638801 225.69621567213 215.11981586466 182.31987517336 109.88389380026 174.25276346968 100.79635158395 104.77347061712 102.62907431279 147.4360528259 94.12685601338 130.07894869752 101.66300885653 96.437566143482 41.035998186618 105.29113166851 74.82082231274 143.70955014529 160.56551148095 174.08924351202 120.17513630336 269.79192697752 160.56545180489 124.03681679918 154.06484123634 42.412435887136 46.770194791053 55.992880902836 471.89380297333 106.73408491372 69.43166834845 103.38172958529 119.12729391408 104.25280170728 49.293012952075 167.99918431081 94.754882517369 113.62406660033 79.649903031534 96.139314346557 134.29658979744 119.76837899601 136.64730293215 126.63069739289 99.585147978083 96.743146791123 174.12439793514 209.85782269778 60.266478902657 109.32923938667 128.92661537361 130.11294122401 90.149847709673 69.465520647669 121.903457969 79.25647905724 111.95282556013 227.99471250382 200.79989734928 276.9942951523 157.44786711687 109.84993377549 133.99080507702 101.27298372454 161.69891098502 289.89530396628 212.73355132986 63.503190537414 81.930122267229 137.35074491563 228.38364236048 165.43326449085 185.02706825996 255.3676529785 200.30766450028 168.09792196304 203.31684852825 239.23604790237 66.516796252874 176.15359635819 210.06771486831 188.26908739832 205.9248247627 129.09083984583 263.05427755019 92.233795218945 225.99704440749 370.44276695912 250.170479202 343.13318327606 205.94325684698 216.05587621306 208.70946885618 299.4123379577 175.6089463671 440.65364887676 296.80476618191 160.15159684787 225.72243034431 403.73278944771 135.82378777453 283.19949814596 240.16707837701 377.8801621185 381.31259443788 444.43021131418 222.93048610932 290.12332056001 227.61626531436 248.99679781756 246.16193548055 351.56751906893 383.45670337376 223.62101804481 314.49670335285 211.53820848229 187.8997933341 352.6222570281 478.83080339952 317.01440767017 233.99813292842 266.87344705043 226.34617354401 216.9808229882 457.54839392213 449.48095345338 434.74322189582 
SCALARS Resistivity_(log10) double 1
LOOKUP_TABLE default