# vtk DataFile Version 3.0
d-2__ created by libgimli-v1.5.0-1-g5991b6ac
ASCII
DATASET UNSTRUCTURED_GRID
POINTS 803 double
8.3333333333333	0	0
8.5	-0.29429712828708	0
8.6666666666667	0	0
21.166666666667	-0.35154628884587	0
21.333333333333	0	0
21	0	0
-0.13949540192174	-0.65832226163824	0
0.26765699968102	-1.1941152153012	0
0.50098922076846	-0.451860121227	0
11.833333333333	-0.28867513459481	0
11.666666666667	-0.84084908820295	0
12	-0.57735026571174	0
-1	0	0
-0.82347194173878	-1.6006755924119	0
21.666666666667	0	0
21.5	-0.55217395360815	0
1.1666666666667	-0.35154628884586	0
1.3333333333333	0	0
1	0	0
1.5	-0.55217395360814	0
23.61842901153	-0.60378553647188	0
24.166666666667	-0.55217395360814	0
23.833333333333	-0.35154628884586	0
1.6666666666667	0	0
8.1666666666667	-0.35154628884586	0
1.8333333333333	-0.35154628884586	0
2	0	0
4.8333333333333	-0.35154628884586	0
5.1666666666667	-0.55217395360814	0
5	0	0
2.6666666666667	0	0
2.3333333333333	0	0
2.5	-0.35154628884586	0
2.1666666666667	-0.29429712828708	0
8.4079889429861	-0.75760412093209	0
9.0144333430414	-1.1439190584088	0
8.8333333333333	-0.55217395360814	0
13	0	0
13.166666666667	-0.29429712828707	0
13.333333333333	0	0
3.1666666666667	-0.35154628884586	0
3.5	-0.55217395360814	0
3.3333333333333	0	0
16	0	0
16.166666666667	-0.29429712828708	0
16.333333333333	0	0
3.6666666666667	0	0
3.8333333333333	-0.29429712828707	0
4	0	0
4.3333333333333	0	0
4.1666666666667	-0.35154628884586	0
27	0	0
26.833333333333	-0.35154628884586	0
27.166666666667	-0.55217395360814	0
3	0	0
16.5	-0.35154628884586	0
16.666666666667	0	0
2.8333333333333	-0.55217395360814	0
13.5	-0.35154628884586	0
13.666666666667	0	0
4.5	-0.55217395360814	0
4.6666666666667	0	0
3.9253443903472	-0.75760412093208	0
29.833333333333	-0.29429712828707	0
30.166666666667	-0.35154628884587	0
30	0	0
35.905165514021	-0.87509566217462	0
36.166666666667	-0.35154628884586	0
35.661339523067	-0.61041034021497	0
5.5	-0.29429712828708	0
5.8333333333333	-0.35154628884586	0
5.6666666666667	0	0
5.3333333333333	0	0
27.333333333333	0	0
27.5	-0.35154628884586	0
35.833333333333	-0.29429712828708	0
6.1666666666667	-0.55217395360814	0
6.3333333333333	0	0
6	0	0
37	0	0
37.166666666667	-0.35154628884586	0
37.333333333333	0	0
10.741322276319	-0.75760412093209	0
11.175685896383	-1.113902458684	0
11.166666666667	-0.55217395360814	0
6.5	-0.35154628884586	0
30.795730030397	-1.0103532830333	0
31.229185900173	-0.87228466782526	0
31.000045632922	-0.57199295442671	0
31.666666666667	0	0
31.833333333333	-0.55217395360814	0
32	0	0
40	0	0
40.166666666667	-0.35154628884586	0
40.333333333333	0	0
6.8333333333333	-0.29429712828708	0
7.1666666666667	-0.28872883340808	0
7	0	0
7.2211097499487	-1.0538354750778	0
7.0053271435993	-0.61041034021496	0
6.7615011526461	-0.87509566217461	0
9.5	-0.29429712828707	0
9.3333333333333	0	0
9.1666666666667	-0.28872883340808	0
7.3333333333333	0	0
39.666666666667	0	0
39.833333333333	-0.29429712828708	0
13.674580112811	-1.7184248716052	0
14.353791495618	-2.0265268011931	0
13.958469529133	-1.3940906823913	0
7.6666666666667	0	0
7.8333333333333	-0.55217395360814	0
8	0	0
12.994672856401	-0.61041034021496	0
5.5920110570139	-0.75760412093209	0
5.8348685364776	-1.5356869134354	0
9.8333333333333	-0.35154628884586	0
9.5718321806872	-0.87509566217461	0
10.166666666667	-0.55217395360814	0
7.33337923226	-0.57364431858631	0
10.36828810089	-1.6552861219901	0
6.6666666666667	0	0
36.666666666667	0	0
36.833333333333	-0.29429712828708	0
37.5	-0.55217395360814	0
24.333333333333	0	0
24	0	0
12.503171480364	-0.86507900392268	0
12.328351644367	-1.416191408927	0
12.778890250051	-1.0538354750778	0
11.5	-0.28867513459481	0
19.666666666667	0	0
19.833333333333	-0.35154628884586	0
20	0	0
9.6666666666667	0	0
20.5	-0.28872883340808	0
20.666666666667	0	0
20.333333333333	0	0
20.905165514021	-0.87509566217461	0
10.5	-0.35154628884586	0
10.333333333333	0	0
9.3280061897341	-0.61041034021496	0
10.833333333333	-0.29429712828707	0
10.666666666667	0	0
22.833333333333	-0.55217395360814	0
22.5	-0.72876886968591	0
22.915493514149	-1.1101467813362	0
5.2020787936337	-1.0219070688786	0
18.833333333333	-0.29429712828707	0
18.925344390347	-0.75760412093207	0
19.166666666667	-0.35154628884587	0
22.666666666667	0	0
22.5	-0.35154628884586	0
13.833333333333	-0.55217395360814	0
14	0	0
16.833333333333	-0.55217395360814	0
0	0	0
14.166666666667	-0.35154628884586	0
14.333333333333	0	0
14.5	-0.55217395360814	0
14.833333333333	-0.35154628884586	0
14.666666666667	0	0
15	0	0
15.166666666667	-0.55217395360814	0
15.333333333333	0	0
2.0948344859795	-0.87509566217461	0
2.2850956781966	-0.60378553647187	0
12	0	0
11.666666666667	0	0
22.166666666667	-0.95506458788032	0
22.166666666667	-0.55217395360814	0
21.833333333333	-0.7287688696859	0
15.5	-0.35154628884586	0
15.666666666667	0	0
17	0	0
20.833333333333	-0.29429712828707	0
20.661339523067	-0.61041034021495	0
9	0	0
14.166666666667	-0.72876886968591	0
17.333333333333	0	0
17.166666666667	-0.35154628884586	0
18	0	0
17.666666666667	0	0
17.833333333333	-0.55217395360814	0
17.5	-0.29429712828708	0
16.258677723681	-0.75760412093209	0
12.833333333333	-0.28872883340808	0
18.166666666667	-0.35154628884586	0
18.333333333333	0	0
17.407988942986	-0.7576041209321	0
19	0	0
19.333333333333	0	0
18.666666666667	0	0
12.166666666667	-0.28867513459481	0
12.333333333333	0	0
15.833333333333	-0.55217395360814	0
20.166666666667	-0.55217395360814	0
19.5	-0.55217395360815	0
7.5	-0.28867513958836	0
23.5	-0.29429712828708	0
21.833333333333	-0.35154628884586	0
22	0	0
26.592011057014	-0.7576041209321	0
22.333333333333	0	0
23.934922518609	-1.0280995368212	0
25.166666666667	-0.35154628884587	0
25.5	-0.55217395360815	0
25.333333333333	0	0
23.166666666667	-0.35154628884586	0
23	0	0
26.666666666667	0	0
26.5	-0.29429712828708	0
23.666666666667	0	0
23.333333333333	0	0
26.166666666667	-0.55217395360814	0
26.333333333333	0	0
26	0	0
24.761501152646	-0.87509566217461	0
24.951762344863	-0.60378553647187	0
24.5	-0.35154628884586	0
33.5	-0.35154628884586	0
33.238498847354	-0.8750956621746	0
33.833333333333	-0.55217395360815	0
24.666666666667	0	0
28.166666666667	-0.35154628884587	0
28.5	-0.55217395360815	0
28.333333333333	0	0
25	0	0
24.833333333333	-0.29429712828707	0
27.761501152646	-0.87509566217461	0
27.951762344863	-0.60378553647187	0
29.333333333333	0	0
29	0	0
29.166666666667	-0.55217395360814	0
25.833333333333	-0.35154628884586	0
29.947484315848	-0.62869436758688	0
30.409983486194	-0.76921735210505	0
34.166666666667	-0.72876886968591	0
34.166666666667	-0.35154628884586	0
25.666666666667	0	0
35.445556916718	-1.0538354750779	0
35.333287434407	-0.57364431858632	0
29.666666666667	0	0
29.5	-0.28872883340808	0
26.834868536478	-1.5356869134355	0
30.833333333333	-0.28872883340808	0
30.671365010853	-0.57276869068256	0
27.666666666667	0	0
38.204670056311	-1.4270134762662	0
38.601589185276	-1.0280995368212	0
38.094834485979	-0.87509566217463	0
28	0	0
27.833333333333	-0.29429712828707	0
36.662074300781	-0.56642454030296	0
28.666666666667	0	0
31.746636025369	-1.1187108767801	0
28.833333333333	-0.35154628884586	0
33	0	0
33.166666666667	-0.29429712828707	0
33.333333333333	0	0
34.5	-0.55217395360814	0
34.731644951192	-0.92970615345739	0
35.666666666667	0	0
35.5	-0.28872883340809	0
30.333333333333	0	0
31	0	0
31.166666666667	-0.28867513958836	0
31.333333333333	0	0
38.285095678197	-0.60378553647188	0
37.833333333333	-0.35154628884586	0
30.666666666667	0	0
30.5	-0.29429712828708	0
36.5	-0.28872883340808	0
33.666666666667	0	0
36.41952417611	-0.77749898599357	0
38.5	-0.35154628884586	0
38.833333333333	-0.55217395360815	0
38.666666666667	0	0
29.657657699283	-0.83081436360664	0
40.168201869811	-1.5356869134355	0
40.5	-0.55217395360814	0
39.925344390347	-0.75760412093211	0
32.994672856401	-0.61041034021495	0
31.5	-0.35154628884586	0
43	0	0
42.666666666667	0	0
42.833333333333	-0.29429712828707	0
43.404176293252	-0.42323554094762	0
35.88498281448	-1.5034830799843	0
41.166666666667	-0.29429712828708	0
41.074655609653	-0.75760412093211	0
41.5	-0.55217395360814	0
41	0	0
41.333333333333	0	0
34.333333333333	0	0
32.166666666667	-0.35154628884586	0
32.333333333333	0	0
39.5	-0.55217395360814	0
39.333333333333	0	0
36.500673817427	-1.6307728168531	0
40.833333333333	-0.35154628884586	0
34.666666666667	0	0
35.333333333333	0	0
35.166666666667	-0.28867513958836	0
35	0	0
36.333333333333	0	0
36	0	0
12.333333329009	-0.57732068917697	0
37.666666666667	0	0
7.9035368819631	-1.2622568520387	0
28.737635378193	-1.2311528923644	0
29.212976838479	-1.0424777721347	0
28.833333333333	-0.7287688696859	0
12.66662076774	-0.57364431858631	0
38.166666666667	-0.29429712828707	0
38.333333333333	0	0
12.5	-0.28867513958836	0
39	0	0
39.166666666667	-0.35154628884586	0
20.347766676375	-1.1439190584087	0
19.833333333333	-0.7287688696859	0
40.666666666667	0	0
42.5	-0.35154628884586	0
10	0	0
18.5	-0.55217395360815	0
41.666666666667	0	0
23.428167819313	-0.87509566217462	0
42	0	0
42.166666666667	-0.29429712828707	0
42.333333333333	0	0
42.744785246826	-0.77776727251482	0
41.833333333333	-0.35154628884586	0
38	0	0
41.542494325991	-1.1832128457714	0
2.6015891852757	-1.0280995368212	0
13.258353909981	-1.6064355191183	0
4.8333333333333	-0.72876886968591	0
15.5	-0.7287688696859	0
15.8687454603	-1.0219070688786	0
16.501535203144	-1.5356869134354	0
14.833333333333	-0.72876886968591	0
12.666666666667	0	0
17.797921206366	-1.0219070688786	0
18.166666666667	-0.7287688696859	0
36.905165514021	-0.87509566217463	0
32.666666666667	0	0
32.5	-0.55217395360814	0
34.833333333333	-0.28867513459481	0
34.999999995676	-0.57732068917696	0
34	0	0
35.169838147031	-0.8650790039227	0
42.285095678197	-0.60378553647188	0
41.877780449001	-0.80261564071807	0
13.238498847354	-0.87509566217461	0
11.333333333333	0	0
11.697267761921	-1.4738194081615	0
12.166692603518	-0.86967323340335	0
3.1666666666667	-0.72876886968591	0
11	0	0
18.535412126967	-1.0219070688787	0
25.833333333333	-0.7287688696859	0
25.268255851942	-1.0280995368211	0
28.268255851942	-1.0280995368211	0
[...]
CELL_DATA 1424
SCALARS Coverage double 1
LOOKUP_TABLE default
2.8821371064008 3.1196947774582 2.0338957912458 2.6169303535832 1.8234984118443 2.9951149748312 2.8152496428705 2.3362138346485 2.7613263779419 2.6054369374423 2.8367102954072 2.4441108829748 2.8344146047174 2.6591616979957 2.6791420210662 2.6048198339933 2.4761459019145 3.2063103336081 2.6504337069565 3.2082990901074 3.2715793470602 3.2444293633365 2.9356862812774 2.9659348997316 2.9624807816193 2.9393592372267 2.9583178126861 2.8711374370283 2.5319025482288 2.9388928298996 2.9809808617891 2.6424308620336 2.7710710171941 2.9519224988748 2.9315153229939 2.7489780140905 2.9923636559954 3.2976753962822 2.4924700201676 2.7629151030335 2.6436995390184 3.0149457706478 3.1638467779052 3.2518898390453 2.8212585667851 2.4479648719653 2.8765482757695 3.2518451105034 3.2666701400985 2.098282569961 2.987865965359 3.0576296978696 2.7128460014627 2.3470913820164 2.8054725043898 2.626962372663 2.4976059962745 2.4148498205157 2.8785825264729 2.9486761432135 3.3150752535162 2.8814027991882 3.1411786712453 2.3498211013236 2.6253207276725 3.0959690450653 2.9922383712071 2.9213046312005 2.6735883013338 2.8086292233219 2.9256224520655 2.7322969113236 2.8486445464963 2.5964734158229 2.4007821198283 2.7389102253767 2.8677991747062 2.7841107799696 2.4611752442566 3.0466187176488 2.8049172270372 2.5688312483596 2.7538501425939 3.0737753515462 2.5966991349611 2.7944414629901 3.0254023091811 2.8733819204698 2.8572108225358 2.3270475440617 2.7939110829402 2.42743561734 3.0649241368606 2.6277986486181 2.5114257928764 2.9550619445816 2.3507538316322 3.0549828307975 2.7527955591262 3.0114318386262 2.6476531735784 3.0738642574815 2.6826524102784 3.0130982715346 2.8519998838149 2.7117024258005 2.8132771306411 2.7529481617364 2.8312492385082 3.0434260400997 2.6556345837036 3.2253648687029 3.2676437244448 3.0698116188077 2.6561583343195 2.8720693451473 3.1448954237496 2.8297380432289 3.1533325064359 2.887069037525 2.7705252979977 2.8954265609331 2.9523953401169 2.8169254820261 2.7459453333594 3.0695923009247 2.7707663983269 2.797529373017 2.9155066471076 2.820170966468 3.3090546038622 2.7540486698628 3.0513942473104 3.2585331896862 2.6329713852398 2.9442142757729 2.882966055056 2.9729336328896 3.1926039617924 2.9308320058409 3.1662249946909 3.1126181939477 2.7279851188326 2.7288390178966 3.0905451071615 2.9591048401739 3.3825539626606 2.9864366630073 2.7468440180561 3.1922940504345 2.8751001104688 2.7596057073232 3.0246271948698 3.2140644647294 2.7849417413633 3.1968219545526 2.5746720450137 3.0675999938936 2.9972971560598 2.8843473384436 2.5571619945995 2.8180503891772 3.109581312876 2.2940977233701 3.3738091481006 2.9933436594997 2.7535227346907 3.0881768794923 2.614783220621 2.8947907040553 3.2359984931965 3.1891946339919 2.9146019698509 3.205929720205 2.6585664576684 2.9239195456158 2.6635031268974 3.2008191553591 3.2198254274018 3.3751583853895 2.6014091544056 3.1029427064437 2.9733578292494 3.1086997888944 2.9763595919326 2.8803525263049 2.7331733370027 2.7603712116392 2.7563833136779 2.4013934060447 2.8076171821842 2.7629571639504 2.9173210049354 2.9189553962222 3.0960157458654 2.2566505926381 2.4143946668929 2.8207520735 2.4751702746352 2.9828093769226 2.9501882535408 2.8242765444247 3.1837583046507 2.9184512375566 2.2905154636011 2.5233598637273 2.638922748573 3.0723625423795 2.727944064096 2.9749121066013 3.2063434816568 2.9633344845115 2.6729345301724 3.128286517993 2.6818455114639 2.979845731315 2.826797668242 2.7062394489196 2.7684547841622 2.4342965074419 2.8747637854029 2.5831856056271 2.5338988602607 2.6672513066696 2.498936516873 2.8347380676163 2.8683852560942 3.0632658728175 2.8781777921023 2.7759738132729 3.0507037798206 3.1096152545698 2.5479177174994 2.8823257831721 2.5377488903638 2.9008532403915 2.7388041718088 3.2099643707935 2.9404424986124 2.9634982967488 2.8824321653757 2.6782182290452 2.709069518283 2.8798583261552 2.6829651694713 2.9682447565629 2.89042853562 2.2155871913011 2.7346472508776 2.7493693754704 2.9821126504134 2.5931187708884 2.7354478052628 2.6620879949924 2.7855574094662 3.093764874852 2.6837195961779 2.8763287934992 2.3104558712455 2.459084065341 3.155465987207 2.3190145922434 2.6343306436823 2.8059297126586 2.5816320151589 2.8180641163406 2.5456283018447 2.608054212972 2.7388853174631 2.2460533823622 2.5648160618019 2.6777250792404 2.5527911731799 2.5568718409662 2.463143980439 2.665400128762 2.7897943812085 2.8029432600659 2.6478162450832 2.6472636143011 2.7989543176721 3.2080267393003 2.9016572172282 2.5251630498106 2.6778331460948 2.6588587442374 2.7945212683103 2.7025564595819 2.8039384378628 2.8403322042319 2.6862873345928 2.8041237541968 2.8135682064406 3.395871612921 2.8670245948176 2.9304332112852 2.7693552409149 2.8216085534972 2.8357222680705 3.3829142638811 2.8778823717888 3.0390187585083 2.7679670614026 2.5787848584421 2.967852406699 2.7881815723366 2.8202366099306 3.3721695796436 2.9710094473661 2.9768600990737 2.9518629554401 3.3348684809973 2.6947765607535 2.7930014761835 2.6053387452077 2.3762617886813 2.9108327117764 2.6078807662317 2.6752085407381 3.0944185179926 2.7021739047363 3.0395184889764 2.8308028035085 2.999663279775 2.3568014682721 2.407567579343 2.5849212531831 2.5606718520458 2.6467744660718 2.7768188943654 2.5819245525635 2.4982617622137 2.6260783259726 2.8467392071289 2.8006561349251 2.9187091512374 2.35973162674 2.2412184467087 2.8896902188461 3.248697164438 2.9819939322591 2.8234036512513 2.6572765079849 2.6861193317995 2.6288081934671 2.8058764921524 2.6923763008014 2.8825955078152 2.7122958191997 2.6903878521527 2.9398388271885 2.5462821536695 2.2941450199992 2.5921081578549 2.510722831861 2.3470253261198 2.7254646592281 2.7147867341037 2.4128213595884 2.960278544805 2.6420332831577 2.4928192700592 2.5482641175854 2.6768496968826 2.5735523465888 2.6591689876297 2.3901069124785 2.9107891269958 2.7859739984596 3.0251810988354 2.7285998616478 2.6620506338365 2.6959267641943 2.9406570471898 2.8030455685617 3.0362117136301 2.7592385658029 2.9435761832664 2.9259805545042 2.6770317290578 2.7605183883085 3.0416248835626 3.2144278328378 3.1533408040941 2.5987054864306 2.7895451619183 2.8248938701284 2.8978911127853 2.5529924861299 2.7605756788687 2.9108694804832 2.7124965781478 2.6111620979606 2.8279660497054 2.6393986724119 3.3848680630129 2.4797078422715 2.5172251339015 2.3800997042284 2.6079873689705 2.275313368147 2.461193767359 2.3116011903694 2.3697276120284 2.5775467341064 2.3289714612615 2.3036138265101 2.8896483956928 2.4708141237809 2.5430041381803 2.6220903305597 2.698882218963 2.5542910817116 2.6767147103106 2.5122234838412 2.7412874198403 2.6811226144074 2.2869887764831 2.5312236113617 2.5528493110137 2.3850705326862 1.9781295509032 2.5349767509799 2.5968998873418 2.7845289491577 2.6303236847785 2.7941340787516 2.6521686300732 2.1965856753019 2.7807874607179 2.5973394411365 2.7398196882636 2.5521297310261 2.8734918615137 2.570729379906 2.9216043643345 2.5938968264752 2.2588626788148 2.2636643491242 2.7417495390462 2.736093039677 2.8052817651137 2.5697992954196 2.4303138845796 2.227868578672 2.8350650288893 2.6240055726379 2.8536813440552 2.6395459660216 2.7088462962923 2.4464648864261 2.4559362635834 1.8938923733294 2.5605073392471 2.3986258726527 2.0541680151907 2.185458386426 2.4041726794892 2.4568166288087 2.4796746547503 2.5338987939158 2.9142679028283 2.4521805594008 2.2370869691159 1.9170802988117 2.1770653007193 2.6323069648326 2.3781736129535 2.427327743498 2.0496954272612 2.6872612376875 1.7987046728351 2.7471092658764 2.5186974288418 2.5478483046479 2.4895979185122 2.7834578408781 3.2575928260278 2.3840083419005 3.0834945807618 2.5391948892415 2.5532471592534 2.5681562798087 2.6453118696672 2.3772086351387 2.6146538541248 2.5426268273643 2.5654106524335 2.2213846427858 2.6435061460983 2.4575933924893 2.6775503824244 2.0771516949856 3.0863360670342 2.5475845436306 2.475331048093 2.2960647953209 2.3991334918214 2.5235324173948 2.6505928332119 3.0261256012428 1.7124630288554 2.6940461320084 2.6308994996598 2.3382619570132 2.4596623418582 2.0192546929503 2.1423234587554 2.5572509812879 2.2528354908106 1.842470860263 2.4779280014148 2.3438095418293 2.8225004036161 2.0780589746845 2.3035863282835 2.3013086506307 2.374790400757 2.081688430484 2.0877984364097 2.4746580994961 2.6639584253512 2.487004325576 2.4355290351002 2.2863831797939 2.3303867325613 1.9740232916075 2.4811585176033 2.2001171419889 2.1986979315243 2.4966604190481 2.3781123831761 2.5900373207297 2.3499593948688 2.1324074261522 2.5190746348312 1.8270412190836 2.1581111736772 2.4286698572676 1.6234323542548 2.2754024698851 2.2592515031161 2.5600055603036 2.3426307584676 1.7793515021953 2.5731903104664 2.5382286186173 2.6241655791637 2.6428337803633 2.4726552002897 2.3720268918079 2.4559837587803 2.4365892082867 2.4489297415396 2.0858565798144 1.9764102442876 2.6265804305653 2.5180035491847 2.3158948916529 2.3996667640013 2.3318355595199 2.6939112700586 2.3946728072445 2.2399433634929 2.2230230849202 2.2630230386574 2.3664539994861 2.5480901402342 2.9620207991266 2.6304679774381 2.0012207806379 2.4737458659087 2.8507565056517 1.9713885720379 2.3983603508509 2.4014591308299 2.2843728986314 2.2791964874012 2.6525098122993 3.0366324559309 2.3698873903005 2.3192120674159 2.3173359459269 2.369395158659 2.7390861038474 2.4580440363367 2.1450366852551 2.1340394796874 1.6639213577544 2.0971665326386 2.1858739734134 1.7495720603629 2.7841681808783 2.6586482071763 2.3177418112121 2.245868977736 2.7156105206489 2.612074237108 1.9561361053435 1.3117749336805 2.242206922632 2.3067307803177 2.1178555091509 2.8262122112819 2.0444442237007 2.0035747468754 2.5307091457041 2.7441029230066 2.414424824063 2.289962908833 2.3930692708365 2.3351205326157 2.1336901741055 2.4583809167704 2.1469187515604 2.3437618100737 2.4880064653287 3.2121691016265 2.1444877175271 1.9700521507842 1.9242969407378 2.162160908341 2.0811338264086 1.9209009083606 2.166232204028 2.2285595243243 2.2901166249422 2.0254775257486 1.963269442791 2.5205059375287 2.41300175056 2.5968931494831 2.291204381165 1.8064644787935 2.3807501958675 1.6890037821232 1.5751411126988 1.852845584357 2.3266143876724 2.708819048183 1.9665868145399 2.7298370016549 2.1073830094907 2.1658328027661 1.9583154598541 2.2753589702214 1.9604032923266 2.5274680763851 1.890383822548 2.236526853531 2.0524563651016 1.6363559111213 2.085376814484 2.1372666016179 2.2405039383005 2.1941707768261 2.2694468182864 2.0455489227518 2.3622421960752 2.7762504979199 2.0076360164591 2.2747325967272 2.2005552569856 2.1676537505588 2.3268296374055 2.0912138120502 2.0868268588301 2.6643791258559 2.4276076152414 2.1381669111639 2.8715399408169 1.559520055866 2.0091260842931 2.6853105573755 2.0610775245007 2.2813125784037 1.2817649698356 2.0302648005931 2.7675650919149 2.1564575064679 1.8317354710327 1.8913476392896 2.2699192761031 2.1224848553164 1.860933435634 2.1444121379899 1.9394209352011 2.0928405212822 1.9351035081009 2.307421053431 2.030408370656 1.9067879190953 2.1242684005215 2.0582632292194 2.1194042558209 1.9893558914777 2.0113561677495 2.9073875807869 1.9917466680726 2.1081098691706 2.2980857114017 2.1384887933591 1.9793653411329 2.2033618641944 1.7201480445583 1.9127781327063 1.7913452820081 1.8722654955729 2.0302178979742 2.7195084592793 2.2999884637253 1.9500155920505 1.712340458259 2.3591573714364 2.0516791859813 1.3547278551534 1.8154218690149 0.60791762207566 0.75616309668038 1.9720759261939 1.9188529338064 1.8097389252301 1.3881600838086 2.1139207994532 0.88214451493625 2.5287620528077 2.6841666250757 1.9218965887476 1.4295156986196 1.2135420545635 1.8106852070631 2.5120344958359 1.6339579551547 1.8137637675258 1.815771704042 2.4197285814546 1.7758533671115 1.8410888394066 1.971722767816 1.6518383132555 2.1144937675894 1.9045570342967 2.0611815309626 2.0184135747512 2.0819034250723 1.8698712873802 1.620226824637 1.9921032800288 2.2631461040757 1.5459783722409 2.4664144022486 2.6095002793125 2.4683800868983 1.8458864976687 2.2953332382486 1.6269708733249 1.6256461421187 1.7000262647312 1.6699802141639 1.9041431309661 2.0717302307478 2.1111215029849 2.9223784408168 1.71369024762 1.6614876744807 1.5225995617812 1.5896951216253 2.3728252545872 1.9226795828937 1.7428297002278 1.9291282778465 1.6968880894868 1.3736944498659 1.3515315195543 1.9251211889236 1.5600840929753 1.4798955061463 1.5531051912481 1.801481302136 2.2017725009448 1.2595040789616 1.8415272082977 1.1906700361418 1.4654919044165 1.6098477564381 1.9709803946013 1.7260161651469 2.1959753527949 2.004907296106 1.9794208958742 2.0794118868312 1.6636901682048 1.8381135429737 1.8519989329263 1.7198964564559 1.8152195775171 1.9131419862758 1.4986476872728 1.9940803030705 1.7336479549092 1.6410021442761 1.7723028937862 1.8289740203315 1.8429902733386 1.1675119429024 1.9725407005617 1.6462375584283 1.7526375198343 1.5036641861714 1.7636257403824 1.4941579326719 1.4554098451671 1.6387810639371 1.6698380626654 1.4882621187857 1.6893307471915 1.5865248735586 1.3486012140437 1.4801544935822 1.5281880979319 1.2014091810939 1.6680003122461 1.2942119523176 1.7007513663633 1.5293132150546 1.5655349128147 1.2819226297499 1.3600119524377 0.93785270240697 1.2209614019766 1.4283484828592 1.2886606075605 1.1988448118749 1.4874918280406 1.3914979551713 1.551731264344 1.1155792969759 1.7128527781284 1.8837251694256 2.0307058907734 1.6590852234727 1.4362866719109 1.496732055576 1.5871495251943 1.4311227180434 1.330903291437 1.8613642177724 0.97205627334409 1.4822464598468 1.6387759380371 1.7566179975117 1.6674439833273 1.5549542453452 1.4542065795688 1.4336943130418 1.2252719097751 1.1090847914134 1.2702682039378 1.456570849884 1.3362304139079 1.4676527179505 1.1317097347791 1.7564233090717 1.4074594228464 1.6821800062139 1.7501669918556 1.3325927867605 1.3117524166079 1.5860206792289 1.5936278390812 1.2902697935659 1.4167284666977 1.3411585465388 1.4679185272878 1.3168374883485 0.78077208593116 1.2359096485804 1.5180208561298 1.2590061501652 1.0479654077888 1.4511043678023 1.312816930751 1.2581644806235 1.1574792068886 1.4602113910994 1.0697321081179 1.2062099560991 1.230645247188 1.2287859326408 1.0486322341622 1.1583098443025 0.72404486540283 0.92121055290698 1.0473242570902 0.90818196041893 1.2628339192931 1.3334353989928 1.2347121390027 0.99515973944849 0.77307558731277 1.0566374320787 1.0944721339599 1.5915809160992 1.2364865312296 1.1036373715245 0.98649321622499 1.1700443148381 1.0149774765785 1.2328521093232 0.46144664420754 1.1170381835185 1.4871338375538 0.91998063580502 1.1040864419872 0.73698253511877 0.79829226631324 1.0213108010412 1.241272412145 0.90148791772675 0.93921224996005 0.94659736070764 0.64473857059251 0.92856626645842 0.48209572038087 0.40849635172765 0.46376443647196 0.61334077748391 0.79056408783666 0.84026241016615 0.8277725906315 0.73009720997956 0.77597149411749 0.85462380009339 0.8646622078356 0.40447719521523 0.73641379863441 0.93718994971556 1.6565845379708 1.6377456644246 1.1739568637958 1.3517636032369 1.0970903357139 1.2049466694421 1.1697653137669 0.66877546239857 0.77511830421736 0.63822738397711 0.64667010541586 0.65393514710769 0.76748121210894 1.0484417182796 0.66786066965311 0.61161621441404 0.7356267194359 0.83371186079957 0.54962370066352 0.52964025211125 0.77449048232142 1.447847874167 0.78424276380376 1.4279423974551 1.1603834698895 1.4685181152665 1.5073509864783 1.3892731577453 1.3505216467374 1.1648499448614 1.2752138455814 1.2737918616479 0.82412724044268 0.68880976927427 0.50539241764647 0.41270410569541 0.4098546716965 0.86722930322339 1.1503978854158 1.0634625031524 1.3551537632279 0.80049805285727 0.88941440188316 0.98321606920474 1.3005948923118 1.0182402078367 1.2528795803697 1.1110375407672 0.93073029031942 0.79328243353984 0.70309077907282 0.5320220173219 0.77673854681544 0.43747829338968 1.0579150947335 1.0661934399262 1.4462828237961 1.1655875479376 1.2648641402139 1.2460632716863 1.4883139272277 1.0661233870245 0.99765085589352 0.63395345511151 0.96246583377089 0.89991839105942 0.96548436706023 0.9280727342406 1.0930541276356 0.50716786983211 0.62901414489358 0.69450014013553 0.56145807539986 0.81243297556766 0.48292522396301 0.57305665180939 0.83994141781379 0.92990751898168 1.0652152055111 0.68685112973673 1.1730562188619 0.76697032846214 1.3482348564871 0.99710481702881 0.76514470390001 1.1335372959235 0.93137356506864 1.082666757812 1.0395423316724 0.4848919609394 0.39512016852226 1.0591889959307 0.698378565964 0.76170067706075 0.64803617006954 0.68803002239281 1.1338969795729 0.53266771319557 0.68402386950969 0.86299971296042 0.73865023733202 0.99344654784657 0.91964626698687 0.61270795070174 0.5041449505826 1.1287415606294 1.0586568355788 1.1998086047447 0.90004986324267 0.95196148871541 1.0449661808565 0.97061470284208 0.79855880446931 0.8714053262041 0.96409611285166 0.58901258757201 0.42215908530233 0.84519760438863 0.54340000938884 0.79994511323124 0.81113349654464 0.37205165264378 0.48608745627291 0.53509794728574 0.60496372012676 0.8816252295382 0.98463429643035 0.79429880302835 0.48642937680466 0.89375389566645 0.47405457787846 0.46749536962918 1.0676973446191 0.56023195954043 1.3597201601377 1.1907458759771 0.75690370447611 0.80871105889742 0.53793799551738 1.1634787098077 0.658499686332 0.59881591715673 1.6579073240118 1.3265872883599 0.63924404060899 0.79060251449307 0.72912929066202 0.52965635240235 0.48729771500967 0.53321656468512 0.4432191612366 0.5825719198012 0.43950022775286 0.50368335002942 0.56145580289544 0.75633727104358 0.62561318702994 0.56008812533579 0.44221397712216 0.68926637091716 0.48264673337406 1.6318156501192 1.3067837928602 1.1531177719351 1.0447809966391 0.50271591165907 0.55669704991603 0.63735100962991 0.47473950790466 0.45823869869683 0.61235972904863 0.97715609058252 0.75414719033679 0.71800939819076 0.59965253076501 0.44543826518204 1.1622329868147 0.85389908836758 0.59452566174814 0.45926163517491 0.64032095968941 0.50305510905561 0.53036250135919 0.44726422628887 0.46576660952885 0.60218566934724 0.75976279724491 1.1477083242428 0.67291691157488 0.62159109358818 0.71611512546345 0.81818057602469 0.74587019908135 0.44297612961416 0.6780394795438 0.82123816289962 0.88211533857231 0.92117764095605 0.99077067318379 0.93442793164856 0.83466492245286 0.77275135631918 0.89264835031155 0.64883276853802 0.68988140425618 0.62554160924829 0.87403363972995 0.48196775344945 1.1264622766326 0.82734778090863 1.2759994994273 1.1360298247604 0.74946245650742 0.70801282844591 0.7458696415444 0.57936814863806 0.67063616158248 0.4415890353914 0.90225446226861 0.6693274242102 0.76737553783817 0.90137394034278 0.80936931364612 1.1447706138458 0.68484630708965 0.72590354217747 0.80998592876914 0.7828659878289 0.66893457043148 0.49811366462099 0.56775162058636 0.9248052364191 0.7180310476587 0.96694756195562 1.0565847407482 1.051260264145 1.4443621567118 0.44218904906321 0.58851256284008 0.92793090214109 1.068666604117 1.5404727168779 1.4110825786484 0.85104494923811 0.73360755679617 1.8007920444967 1.6171550188127 1.3470072817226 1.5155592456998 1.297243620012 0.73354483296395 1.5833082476951 1.3224667618531 1.1801638393316 1.2733667262059 1.1012762396839 0.85183163583434 0.93440896369282 1.0907617470383 0.91402761215229 0.92673610431209 0.84225419169204 1.2196050180375 1.4892794728422 2.0061182816269 1.6964780492151 1.4370923029307 1.215163726593 1.1116403565879 0.69557111715701 1.1997967133569 0.99226865805068 1.2825997405974 1.0057958427009 0.98373335691846 0.8252806229478 1.1428185939063 0.78419864412574 0.75325029318913 1.0786933613215 1.9510432352133 1.8176868886791 1.9428694613906 1.5694773166483 1.049103098891 1.2886440779435 1.4225074829434 1.3561813663933 1.3028898341118 1.2596145568836 1.2672065622585 1.3974674463454 1.141808396452 0.93988168184807 1.7968450253433 1.6075870102435 0.69309880649433 0.39953450741329 0.55139728671335 0.461583454044 1.227508840233 1.470506933598 0.5099172