# vtk DataFile Version 3.0
d-2__ created by libgimli-v1.5.0-1-g5991b6ac
ASCII
DATASET UNSTRUCTURED_GRID
POINTS 257 double
25.5	-0.25	0
25.643267391024	-0.375	0
25.690940791558	-0.19094079155751	0
28.625	-0.27380702240065	0
28.625	-0.13804348840204	0
28.518663902413	-0.18940103023301	0
28.458333333333	-0.087886572211468	0
28.416666666667	0	0
28.375	-0.13804348840204	0
28.291666666667	-0.087886572211468	0
28.333333333333	0	0
28.25	0	0
26.083333333333	0	0
26.041666666667	-0.13804348840203	0
26.125	-0.087886572211466	0
26.166666666667	0	0
26	0	0
26.708333333333	-0.13804348840203	0
26.666666666667	0	0
26.625	-0.087886572211466	0
26.208333333333	-0.07357428207177	0
26.75	0	0
26.791666666667	-0.087886572211464	0
26.333333333333	0	0
26.25	0	0
26.291666666667	-0.087886572211468	0
27.166666666667	0	0
27.208333333333	-0.07357428207177	0
27.25	0	0
26.416666666667	0	0
26.375	-0.13804348840204	0
26.458333333333	-0.087886572211468	0
27.291666666667	-0.087886572211468	0
27.333333333333	0	0
27.625	-0.13804348840204	0
27.518663902413	-0.18940103023301	0
27.625	-0.27380702240065	0
26.583333333333	0	0
28.916666666667	0	0
28.833333333333	0	0
28.875	-0.13804348840204	0
26.833333333333	0	0
26.875	-0.07357428207177	0
29.98747163413	-0.5056358037932	0
30.050519698408	-0.25547676721966	0
29.843533331918	-0.29816134131379	0
29.458333333333	-0.087886572211464	0
29.404607252882	-0.15094638411797	0
29.541666666667	-0.13804348840203	0
26.5	0	0
27.791666666667	-0.087886572211468	0
27.833333333333	0	0
27.75	0	0
27.231336097587	-0.18940103023302	0
27.125	-0.13804348840204	0
25.705488373266	-0.59091608366499	0
26.007921013115	-0.8717186506847	0
25.91135296792	-0.47048281487414	0
30.166666666667	0	0
30.208333333333	-0.087886572211464	0
30.25	0	0
27	0	0
26.916666666667	0	0
26.958333333333	-0.13804348840203	0
30.791666666667	-0.087886572211468	0
30.833333333333	0	0
30.75	0	0
27.041666666667	-0.087886572211464	0
27.083333333333	0	0
30.083333333333	0	0
30.125	-0.07357428207177	0
28.541666666667	-0.073574282071767	0
27.375	-0.13804348840204	0
27.416666666667	0	0
27.5	0	0
27.458333333333	-0.087886572211468	0
28.583333333333	0	0
28.666666666667	0	0
28.226291378505	-0.21877391554365	0
28.432011579996	-0.40775209656411	0
30.148002764253	-0.18940103023303	0
30.208717134119	-0.38392172835888	0
30.291666666667	-0.13804348840203	0
28.208333333333	-0.07357428207177	0
28.166666666667	0	0
28.125	-0.072182208352023	0
27.875	-0.13804348840204	0
26.237940586216	-0.15094638411797	0
27.916666666667	0	0
27.708333333333	-0.07357428207177	0
28.083333333333	0	0
28	0	0
28.041666666667	-0.13804348840203	0
26.190375288162	-0.21877391554366	0
27.958333333333	-0.087886572211464	0
26.541666666667	-0.073574282071767	0
26.571273919549	-0.15094638411796	0
26.317063962986	-0.25702488420529	0
27.541666666667	-0.073574282071767	0
28.5	0	0
29.583333333333	0	0
29.625	-0.087886572211466	0
28.791666666667	-0.087886572211468	0
26.203594889612	-0.40391444725954	0
27.583333333333	0	0
27.666666666667	0	0
28.75	0	0
28.958333333333	-0.087886572211464	0
29	0	0
29.041666666667	-0.13804348840203	0
28.708333333333	-0.07357428207177	0
29.083333333333	0	0
29.125	-0.087886572211466	0
29.166666666667	0	0
29.208333333333	-0.13804348840203	0
29.25	0	0
28.165334880767	-0.15260258505374	0
29.291666666667	-0.087886572211464	0
27.731336097587	-0.18940103023302	0
29.5	0	0
29.416666666667	0	0
29.333333333333	0	0
29.375	-0.07357428207177	0
29.666666666667	0	0
28.086941669094	-0.2859797646022	0
27.958333333333	-0.18219221742147	0
29.125	-0.18219221742148	0
29.228873378537	-0.27753669533404	0
29.708333333333	-0.07357428207177	0
29.041666666667	-0.23876614697008	0
28.958333333333	-0.18219221742147	0
29.833333333333	0	0
29.875	-0.13804348840204	0
29.916666666667	0	0
29.791666666667	-0.087886572211468	0
29.75	0	0
29.958333333333	-0.087886572211464	0
30	0	0
29.483730629652	-0.25702488420531	0
30.333333333333	0	0
30.375	-0.087886572211466	0
29.369620976373	-0.40603607246707	0
29.604159114629	-0.34842263547806	0
31.124752694808	-0.11296503030675	0
31	0	0
30.958333333333	-0.087886572211468	0
30.041666666667	-0.13804348840203	0
30.416666666667	0	0
30.458333333333	-0.07357428207177	0
30.875	-0.13804348840204	0
30.583333333333	0	0
30.541666666667	-0.13804348840203	0
30.625	-0.087886572211466	0
30.5	0	0
30.43533056908	-0.18940103023302	0
30.916666666667	0	0
30.385963434616	-0.36114994877356	0
30.708333333333	-0.07357428207177	0
30.666666666667	0	0
29.636111778917	-0.20065391017952	0
30.999752694808	-0.25100851870879	0
28.731336097587	-0.18940103023302	0
26.851997235747	-0.18940103023303	0
30.737940586216	-0.15094638411797	0
26.523708621495	-0.21877391554365	0
27.133853031742	-0.25547676721968	0
26.949480301592	-0.25547676721966	0
27.041666666667	-0.52911283384145	0
27.041666666667	-0.18219221742147	0
29.357041954828	-0.21877391554366	0
29.737940586216	-0.15094638411797	0
30.690375288162	-0.21877391554366	0
29.958333333333	-0.18219221742147	0
25.875	-0.11303967622539	0
25.75	0	0
26.650397296319	-0.25702488420526	0
27.292050467453	-0.38392172835888	0
27.414390113348	-0.63321254312708	0
27.469144028345	-0.36097200963104	0
27.848127708251	-0.28948918465343	0
28.848127708251	-0.28948918465343	0
28.726596951268	-0.4234584073117	0
29.731548923005	-0.26700761442393	0
30.817063962986	-0.25702488420529	0
26.031958747178	-0.33325463579056	0
26.523689393121	-0.44776195923934	0
29.184065504659	-0.43422319923747	0
29.545209981036	-0.61464357222601	0
30.552290248164	-0.29580321144285	0
31.25	0	0
26.800529041383	-0.37028063139366	0
29.130694908432	-0.28024272799092	0
28.907115884997	-0.43487734236883	0
31.5	-0.5	0
31.5	-0.25	0
31.356886217184	-0.375	0
31.308843572405	-0.19115642759521	0
31.5	0	0
27.681768476189	-0.55823447719905	0
29.041897355025	-0.3545575021244	0
28.950100433703	-0.28398118611486	0
29.746371622197	-0.43057135368151	0
29.045779100149	-0.5143168838031	0
27.615347366628	-0.83560735755964	0
27.971649595913	-0.56775148091581	0
28.235269600634	-0.41546210057925	0
28.346412380513	-0.73751448832674	0
28.007726950717	-0.98664640296265	0
26.322202955504	-0.72835150504623	0
29.798122080496	-0.68908130839227	0
30.703430397599	-0.40445925111313	0
30.914859484231	-0.44990795630246	0
29.247599241801	-0.70334449364573	0
31.053928463665	-0.58159990549132	0
31.221377875989	-0.67457110982012	0
31.225195424337	-0.49586438948828	0
30.530720924191	-0.4852517756918	0
30.323984230706	-0.57992151527177	0
25.84485407481	-1.2957460393421	0
25.743909551686	-0.8528010586154	0
30.746070739038	-0.72060716412098	0
29.604860290622	-0.8788438191921	0
29.043947453281	-1.1807973577914	0
29.54268225478	-1.3246684327942	0
29.849430697053	-0.99522786547226	0
30.043693421774	-0.75311160759413	0
28.849047319116	-0.69970565535729	0
31.000856094841	-0.87446921301307	0
31.5	-1	0
25.845623228308	-0.30002188546398	0
30.512369350266	-0.71824350459	0
30	-1.6666666666667	0
30.051778272566	-1.3024535658708	0
25.5	0	0
27.680522574649	-1.2514855461386	0
27.375	-1.6666666666667	0
27.75	-1.6666666666667	0
31.174325422113	-0.32450830281231	0
25.5	-0.5	0
26.747329141204	-0.71351083399284	0
25.5	-0.75	0
26.348572023727	-1.2023161679924	0
27.179597305363	-1.0673000334922	0
29.25	-1.6666666666667	0
25.5	-1	0
30.75	-1.6666666666667	0
31.013091550828	-1.3141602648437	0
30.625304590967	-1.106556793762	0
30.375	-1.6666666666667	0
30.189043391347	-0.96114657873573	0
28.064690440023	-1.391571216678	0
28.426745644615	-1.201505510398	0
25.5	-1.6666666666667	0
27	-1.6666666666667	0
26.25	-1.6666666666667	0
28.5	-1.6666666666667	0
31.5	-1.6666666666667	0
CELLS 429 1716
3	0	1	2	
3	3	4	5	
3	6	7	8	
3	9	10	11	
3	12	13	14	
3	14	15	12	
3	16	13	12	
3	17	18	19	
3	20	15	14	
3	7	10	8	
3	21	17	22	
3	23	24	25	
3	26	27	28	
3	29	30	31	
3	23	30	29	
3	28	32	33	
3	34	35	36	
3	19	18	37	
3	38	39	40	
3	22	41	21	
3	41	22	42	
3	43	44	45	
3	18	17	21	
3	46	47	48	
3	31	49	29	
3	50	51	52	
3	53	27	54	
3	55	56	57	
3	58	59	60	
3	61	62	63	
3	64	65	66	
3	67	68	61	
3	67	61	63	
3	69	70	58	
3	4	71	5	
3	72	73	33	
3	5	6	8	
3	74	73	75	
3	73	72	75	
3	76	4	77	
3	78	79	8	
3	80	81	82	
3	83	84	85	
3	50	86	51	
3	25	87	30	
3	86	88	51	
3	52	89	50	
3	90	91	92	
3	93	87	14	
3	94	92	91	
3	95	49	31	
3	9	8	10	
3	84	83	11	
3	19	95	96	
3	91	88	94	
3	25	30	23	
3	9	11	83	
3	97	30	87	
3	98	74	75	
3	99	71	76	
3	100	48	101	
3	33	32	72	
3	99	7	6	
3	41	42	62	
3	102	40	39	
3	71	99	6	
3	97	93	103	
3	104	34	105	
3	39	106	102	
3	74	98	104	
3	38	107	108	
3	107	109	108	
3	35	75	72	
3	106	110	102	
3	34	98	35	
3	28	27	32	
3	111	112	113	
3	109	111	108	
3	59	82	60	
3	113	114	115	
3	116	9	83	
3	114	117	115	
3	50	89	118	
3	119	120	46	
3	119	48	100	
3	110	106	77	
3	120	121	122	
3	89	52	105	
3	101	123	100	
3	124	92	125	
3	54	26	68	
3	114	126	127	
3	101	128	123	
3	129	109	130	
3	131	132	133	
3	134	131	135	
3	48	119	46	
3	115	117	121	
3	136	137	133	
3	47	138	48	
3	60	82	139	
3	82	140	139	
3	141	142	138	
3	143	144	145	
3	122	47	46	
3	146	137	136	
3	113	112	114	
3	134	132	131	
3	147	140	148	
3	149	65	64	
3	150	151	152	
3	150	153	151	
3	148	154	151	
3	147	148	153	
3	65	149	155	
3	59	58	70	
3	155	145	144	
3	82	81	156	
3	145	155	149	
3	146	69	137	
3	157	158	152	
3	154	140	82	
3	147	139	140	
3	101	48	159	
3	149	160	145	
3	102	110	161	
3	150	152	158	
3	42	22	162	
3	157	163	64	
3	5	71	6	
3	4	76	71	
3	85	84	90	
3	116	83	85	
3	96	31	164	
3	49	95	37	
3	15	20	24	
3	25	20	87	
3	14	13	93	
3	25	24	20	
3	165	166	167	
3	63	168	67	
3	54	68	67	
3	17	162	22	
3	63	62	42	
3	35	98	75	
3	34	104	98	
3	26	54	27	
3	63	42	162	
3	88	86	94	
3	125	94	86	
3	105	34	89	
3	118	89	34	
3	77	4	110	
3	161	110	4	
3	111	109	112	
3	126	112	109	
3	47	117	169	
3	120	122	46	
3	38	40	107	
3	130	107	40	
3	121	117	122	
3	117	114	169	
3	80	70	146	
3	123	128	135	
3	134	128	170	
3	159	48	138	
3	134	135	128	
3	163	152	171	
3	158	157	66	
3	154	148	140	
3	151	153	148	
3	69	146	70	
3	172	44	146	
3	9	78	8	
3	161	40	102	
3	90	92	85	
3	116	78	9	
3	92	94	125	
3	5	79	3	
3	164	31	30	
3	19	37	95	
3	173	16	174	
3	164	175	96	
3	17	19	96	
3	53	165	176	
3	53	32	27	
3	118	86	50	
3	175	17	96	
3	176	177	178	
3	118	36	179	
3	78	116	124	
3	180	3	181	
3	169	114	127	
3	114	112	126	
3	134	170	132	
3	133	132	136	
3	44	80	146	
3	146	136	172	
3	82	59	80	
3	152	151	171	
3	64	66	157	
3	80	59	70	
3	64	163	149	
3	170	101	159	
3	136	132	172	
3	85	92	116	
3	124	116	92	
3	97	164	30	
3	166	168	63	
3	14	87	20	
3	87	93	97	
3	117	47	122	
3	47	169	138	
3	101	170	128	
3	142	182	159	
3	132	45	172	
3	149	163	183	
3	31	96	95	
3	162	166	63	
3	184	93	13	
3	97	185	164	
3	156	154	82	
3	141	127	186	
3	142	141	187	
3	44	172	45	
3	152	163	157	
3	163	171	183	
3	103	93	184	
3	53	72	32	
3	154	188	151	
3	189	144	143	
3	185	175	164	
3	175	190	162	
3	118	179	86	
3	125	179	124	
3	109	107	130	
3	126	129	191	
3	161	180	40	
3	127	126	191	
3	169	141	138	
3	141	169	127	
3	125	86	179	
3	180	181	192	
3	193	194	195	
3	196	194	197	
3	149	183	160	
3	143	145	160	
3	167	176	165	
3	162	17	175	
3	198	178	177	
3	72	53	176	
3	118	34	36	
3	185	97	103	
3	126	109	129	
3	186	191	199	
3	180	130	40	
3	130	180	200	
3	161	4	3	
3	129	199	191	
3	138	142	159	
3	45	182	201	
3	130	200	129	
3	192	202	199	
3	202	186	199	
3	129	200	199	
3	142	187	201	
3	191	186	127	
3	180	192	200	
3	199	200	192	
3	180	161	3	
3	142	201	182	
3	54	67	168	
3	203	204	198	
3	79	5	8	
3	78	124	205	
3	182	170	159	
3	151	188	171	
3	185	190	175	
3	204	206	205	
3	201	43	45	
3	43	81	44	
3	207	206	204	
3	57	56	208	
3	44	81	80	
3	209	201	187	
3	35	72	178	
3	57	208	103	
3	13	16	173	
3	183	210	211	
3	141	212	187	
3	45	170	182	
3	213	214	215	
3	205	79	78	
3	216	156	217	
3	45	132	170	
3	196	197	189	
3	218	56	219	
3	178	198	36	
3	188	156	216	
3	220	211	210	
3	57	103	184	
3	204	179	198	
3	165	53	54	
3	221	222	223	
3	209	224	225	
3	43	217	81	
3	226	212	202	
3	214	227	228	
3	211	160	183	
3	210	171	188	
3	226	192	181	
3	193	215	214	
3	3	79	181	
3	205	206	79	
3	186	212	141	
3	212	186	202	
3	173	229	13	
3	167	177	176	
3	72	176	178	
3	206	226	181	
3	213	227	214	
3	217	230	216	
3	196	195	194	
3	231	232	223	
3	227	213	220	
3	206	181	79	
3	187	212	221	
3	173	174	2	
3	13	229	184	
3	174	233	2	
3	234	235	236	
3	196	189	143	
3	233	0	2	
3	160	237	143	
3	237	195	196	
3	1	0	238	
3	173	2	229	
3	177	203	198	
3	198	179	36	
3	239	190	185	
3	35	178	36	
3	192	226	202	
3	195	215	193	
3	188	216	210	
3	220	210	216	
3	213	237	211	
3	154	156	188	
3	124	179	204	
3	221	212	222	
3	240	219	55	
3	54	168	165	
3	196	143	237	
3	195	237	215	
3	55	1	238	
3	167	166	190	
3	2	1	229	
3	1	55	57	
3	190	166	162	
3	204	205	124	
3	241	208	56	
3	242	167	239	
3	223	222	243	
3	156	81	217	
3	160	211	237	
3	213	215	237	
3	183	171	210	
3	228	193	214	
3	219	244	218	
3	56	55	219	
3	184	229	57	
3	57	229	1	
3	220	213	211	
3	245	246	247	
3	230	220	216	
3	220	247	227	
3	248	247	232	
3	228	227	246	
3	55	238	240	
3	249	230	217	
3	247	249	232	
3	166	165	168	
3	221	209	187	
3	43	225	217	
3	209	43	201	
3	247	246	227	
3	190	239	167	
3	207	204	203	
3	208	185	103	
3	242	203	177	
3	207	250	251	
3	240	244	219	
3	252	218	244	
3	224	209	221	
3	217	225	249	
3	43	209	225	
3	241	242	239	
3	167	242	177	
3	253	242	241	
3	56	218	241	
3	212	226	222	
3	249	225	224	
3	234	250	207	
3	239	185	208	
3	231	223	243	
3	224	232	249	
3	252	254	218	
3	241	218	254	
3	253	241	254	
3	239	208	241	
3	206	207	251	
3	224	221	223	
3	223	232	224	
3	248	245	247	
3	234	207	203	
3	250	255	251	
3	251	226	206	
3	255	243	222	
3	249	247	230	
3	220	230	247	
3	203	242	234	
3	235	242	253	
3	255	222	251	
3	226	251	222	
3	232	231	248	
3	245	256	246	
3	228	246	256	
3	242	235	234	
3	234	236	250	
3	255	250	236	
CELL_TYPES 429
5 5 5 5 5 5 5 5 5 5 5 5 5 5 5 5 5 5 5 5 5 5 5 5 5 5 5 5 5 5 5 5 5 5 5 5 5 5 5 5 5 5 5 5 5 5 5 5 5 5 5 5 5 5 5 5 5 5 5 5 5 5 5 5 5 5 5 5 5 5 5 5 5 5 5 5 5 5 5 5 5 5 5 5 5 5 5 5 5 5 5 5 5 5 5 5 5 5 5 5 5 5 5 5 5 5 5 5 5 5 5 5 5 5 5 5 5 5 5 5 5 5 5 5 5 5 5 5 5 5 5 5 5 5 5 5 5 5 5 5 5 5 5 5 5 5 5 5 5 5 5 5 5 5 5 5 5 5 5 5 5 5 5 5 5 5 5 5 5 5 5 5 5 5 5 5 5 5 5 5 5 5 5 5 5 5 5 5 5 5 5 5 5 5 5 5 5 5 5 5 5 5 5 5 5 5 5 5 5 5 5 5 5 5 5 5 5 5 5 5 5 5 5 5 5 5 5 5 5 5 5 5 5 5 5 5 5 5 5 5 5 5 5 5 5 5 5 5 5 5 5 5 5 5 5 5 5 5 5 5 5 5 5 5 5 5 5 5 5 5 5 5 5 5 5 5 5 5 5 5 5 5 5 5 5 5 5 5 5 5 5 5 5 5 5 5 5 5 5 5 5 5 5 5 5 5 5 5 5 5 5 5 5 5 5 5 5 5 5 5 5 5 5 5 5 5 5 5 5 5 5 5 5 5 5 5 5 5 5 5 5 5 5 5 5 5 5 5 5 5 5 5 5 5 5 5 5 5 5 5 5 5 5 5 5 5 5 5 5 5 5 5 5 5 5 5 5 5 5 5 5 5 5 5 5 5 5 5 5 5 5 5 5 5 5 5 5 5 5 5 5 5 5 5 5 5 5 5 5 5 5 5 5 5 5 5 5 5 5 5 5 5 5 5 5 5 5 5 5 
CELL_DATA 429
SCALARS Coverage double 1
LOOKUP_TABLE default
1.6009240915143 2.5651997540684 3.069730802634 3.255979128865 2.3652242329355 2.5810974439501 2.6714252943424 2.7918821193611 2.5669886223478 3.1611440802326 2.8571353648778 2.8483562235382 3.3064775088798 2.7015621586263 2.760749297152 3.3277144762689 2.5588430622334 2.9323077106104 3.1381298371764 3.367784340988 3.0523706274296 2.2470681110144 3.3235349492061 2.6441429654095 3.1381850017102 3.4420640011529 2.621894757208 1.2507834210276 3.1139908101018 3.333508423133 2.8838302929531 3.4772633063866 3.0251058933289 3.0117797847276 2.7478445228122 3.0830659737488 2.8455319867259 3.1129884467277 2.8256000554412 3.1585140868166 2.4561704236347 2.3617330437925 3.0334409709383 3.0272996396243 2.3567057859222 3.1509919198441 3.0078655886825 3.4106038267904 2.3622545045545 2.8788595587908 2.7222541809237 2.9362035824396 3.2984470627181 2.6226742325418 3.3853523217727 2.4792169863193 2.8715256511157 2.2542059830188 2.7186028879352 3.3345829175541 2.9293850873289 3.0303699480272 3.3853924619812 3.159007648081 3.0040349952649 2.9219560324958 1.9725138766068 3.1581550956759 3.4180862765556 3.1806989153924 3.5364122307563 3.0533345394075 2.7019969781225 3.1010746061515 2.7466545679793 2.9907952299519 3.1776436979801 3.4795212035715 2.6455923040711 3.2166672766618 2.7837823379262 3.2569713091276 2.8497138200971 3.1494325883851 3.1614909516684 3.5159506733209 3.0880473190492 3.4433694351525 3.1097633747595 2.6256036518328 2.9793304577885 2.5868461815607 3.0684719322589 2.7006340252858 3.0681032324873 3.3657483911485 2.7073776794644 3.4251155796733 3.3995452868385 2.5602126123164 3.1138576759043 2.7724032613285 2.2549726321274 2.1913018829169 2.8324213153318 2.9079092791598 2.9304837879605 2.9569350926127 2.8421612087729 2.4598570459475 2.6016380054732 3.0713586917833 2.5221883178696 3.1799414206989 2.5666149962765 2.8563556503133 2.7470832292648 2.252520296916 2.3229769641401 3.4023057627668 2.6070924407776 2.5606725611492 2.9376164912697 2.7454664452272 1.9983540584446 2.9053256642205 2.7708647337803 2.7757840561498 2.3448625049959 2.7896057211623 2.9829118252183 3.1161680983247 2.9421285444114 2.4740700331797 3.1582829546984 2.9313834406485 2.447412024529 2.2123713020716 2.6736950425083 2.2328305343613 2.7578324234418 2.9935018472281 2.6770337694268 2.9581188001426 2.6241614375279 2.9123304697533 2.8872896314681 2.6927123588716 2.9894052437924 2.7603263199979 3.0869171897002 2.8968339910286 3.173810969922 2.9039684238256 3.0511866280736 2.7886104421771 2.8981599379822 2.9719174293328 3.0832722798579 2.8183773863868 3.0781905448167 2.8434798091323 2.7215790361453 3.3768937080275 2.8078927562841 2.5656898557864 3.0800641707874 2.2658321542708 2.8921973526726 2.6897414780335 2.8154649278103 2.9301475234747 2.6023937937097 2.7063622383374 2.7761564600242 3.019275912782 2.6976384635935 2.782903870535 2.395935013608 2.4466914919091 2.8091298093687 2.5572931042886 2.3484466722279 2.6024734386639 2.3490775405763 2.7583632138946 2.784268853344 2.4503201730969 2.0692838595471 2.5218219010326 2.5596666237894 2.3109961182053 2.6690240000533 2.6992156641382 2.7317345832349 2.9594807932356 2.5437315464701 2.7749771356038 2.5312066489765 2.3470987548953 2.4602909273934 2.6422288870487 2.3020381338579 2.811612647926 2.7211228360491 2.8691786639475 2.7171857555294 2.2618759800316 2.5636123346929 2.5445261582639 2.1611464933691 3.0536709902831 2.5673634409916 3.029003454928 2.4167293418371 2.5073974439295 2.1079791397397 2.621701395034 2.5300460726283 1.9726410398922 2.0816098514873 2.4134211252808 2.2271738266695 2.0572970106815 2.4416860940462 2.368995658745 2.0735932984034 1.8463301979422 2.8942743071616 2.3697431578561 2.4595028194732 2.1526882291201 2.3079405539498 2.6266569288711 2.4888468545121 2.8769900999069 2.4993508204418 2.5798568396042 2.4737243229103 2.3693347265281 2.404623657271 2.5867755190935 2.2187546791947 1.3755025224176 1.5623964434256 1.966418124644 2.0472827444983 2.156149398192 2.5069961521725 2.0003654594904 2.6062742209076 2.6908581758183 1.8890379218212 2.620612153793 2.2639257840356 2.6010341438027 2.4792335908399 2.6684066000918 2.383044928617 2.3915245612711 2.2598852447893 2.5375776158535 2.1323264190406 2.1249085833074 2.3965096378562 2.0456527004456 2.3100233209601 2.3017058552308 2.266571229964 2.4947497737048 2.246561456843 2.7159071931367 1.8553186465589 2.537530153496 2.3644894453582 2.6057860214522 2.214145921121 2.1013706901065 1.9720388550739 2.1322856848008 2.1477264008205 1.7160840842857 1.2725388477933 2.3417038697438 1.8752817833606 2.4727731072297 1.5125482737655 2.2038891535012 1.795096892196 1.8968214513299 2.4472146416969 1.3483140672618 2.2820247809292 1.8769166005714 2.5300388284667 1.7355679979085 0.93179684341828 2.1873212534789 2.0209148477704 1.6099996983742 1.667670985982 2.1215229036133 2.4835667599759 1.2022503924421 1.5225622321551 1.9468953969708 1.8380993320332 1.0514102428524 1.8208964120756 2.0141167211158 2.0187873077937 1.2955646368606 2.2342689562888 2.0420610504007 1.9999543336492 1.9590674367272 2.0108596559217 1.9621234482842 2.3527516033239 1.8714457851308 1.2527769654144 1.6535533170993 1.5301333409797 0.83817724150934 1.2919583569706 2.0300314041626 1.6809450919355 2.0512645616113 1.8995664899183 1.8619324276062 0.83950894016553 1.9344110287563 1.67951223336 1.8644612922609 1.6209744111089 1.434615952746 1.9186382253925 1.7836874632216 2.2835649979091 1.827977188369 2.3996479958178 1.9721743311481 1.3582194687115 1.8914831350037 1.6648060653515 1.5595699468166 2.2267400460534 2.2648466638969 1.4745520600922 1.0364933483793 2.530418610313 1.8295405649888 1.5216119725751 1.3073654518559 2.1504235135039 1.709677027667 1.4193006112426 2.3470717261958 2.1864372357305 1.0930708316432 1.5602269546366 0.95720771693166 1.9841924731005 1.7417296240069 1.4850202552279 1.9486608328949 1.0922547414479 0.82808335092571 1.0592858878631 1.7024496067706 1.5996312439325 1.4674574668763 0.77325004829617 1.5118711261879 1.1596635780119 0.81154538501617 0.91496040614227 1.1446040609145 1.4710641847575 1.0626910058392 2.439724766819 1.6677657091115 1.7325422720014 1.9144380134758 0.95054200707589 1.865265999556 1.6634370202914 1.6304540553567 1.5427863127503 1.2094362022556 0.90626922625411 0.61858586485897 1.4838093676955 1.5092745054315 1.7324363475125 1.1817266141013 1.6465279210721 0.8753527216436 0.87411772627476 1.5717819142194 1.3616567078745 1.1838319603798 1.5581560346379 0.78225832947218 1.163526832822 0.55670473578534 0.69377664473169 0.64336711431187 1.2318001239899 1.4681099421442 1.2605633978254 1.071769168316 0.70236667502702 1.3728737400223 0.99447555671163 1.5795555758933 0.87621088367105 1.2185086438033 1.2714017670434 1.2974716883665 0.82726704161209 1.0502240583439 1.3847825143114 0.70106305771448 0.60353460603218 0.65085274406558 0.99975145523216 0.95037674386414 0.86373106532282 
SCALARS Marker double 1
LOOKUP_TABLE default
0 1 2 3 4 5 6 7 8 9 10 11 12 13 14 15 16 17 18 19 20 21 22 23 24 25 26 27 28 29 30 31 32 33 34 35 36 37 38 39 40 41 42 43 44 45 46 47 48 49 50 51 52 53 54 55 56 57 58 59 60 61 62 63 64 65 66 67 68 69 70 71 72 73 74 75 76 77 78 79 80 81 82 83 84 85 86 87 88 89 90 91 92 93 94 95 96 97 98 99 100 101 102 103 104 105 106 107 108 109 110 111 112 113 114 115 116 117 118 119 120 121 122 123 124 125 126 127 128 129 130 131 132 133 134 135 136 137 138 139 140 141 142 143 144 145 146 147 148 149 150 151 152 153 154 155 156 157 158 159 160 161 162 163 164 165 166 167 168 169 170 171 172 173 174 175 176 177 178 179 180 181 182 183 184 185 186 187 188 189 190 191 192 193 194 195 196 197 198 199 200 201 202 203 204 205 206 207 208 209 210 211 212 213 214 215 216 217 218 219 220 221 222 223 224 225 226 227 228 229 230 231 232 233 234 235 236 237 238 239 240 241 242 243 244 245 246 247 248 249 250 251 252 253 254 255 256 257 258 259 260 261 262 263 264 265 266 267 268 269 270 271 272 273 274 275 276 277 278 279 280 281 282 283 284 285 286 287 288 289 290 291 292 293 294 295 296 297 298 299 300 301 302 303 304 305 306 307 308 309 310 311 312 313 314 315 316 317 318 319 320 321 322 323 324 325 326 327 328 329 330 331 332 333 334 335 336 337 338 339 340 341 342 343 344 345 346 347 348 349 350 351 352 353 354 355 356 357 358 359 360 361 362 363 364 365 366 367 368 369 370 371 372 373 374 375 376 377 378 379 380 381 382 383 384 385 386 387 388 389 390 391 392 393 394 395 396 397 398 399 400 401 402 403 404 405 406 407 408 409 410 411 412 413 414 415 416 417 418 419 420 421 422 423 424 425 426 427 428 
SCALARS Resistivity double 1
LOOKUP_TABLE default
90.085740164357 88.680387827577 95.730304452367 58.2933024037 78.696308398203 105.28503896618 71.691393714676 59.581510942654 109.12061815031 92.90732804027 73.306490361106 54.332459139934 31.655829576822 74.460259178824 66.165188695114 188.42148429002 75.869073058691 50.981861574445 55.445696924848 59.44162942319 60.79436039513 99.120539638349 76.625461409394 73.094685325622 75.595988645143 57.073232787503 58.674598972828 178.88151219436 49.008549217475 55.068267563803 88.071731729888 70.65703458963 72.293818371697 66.827129206685 68.246397025089 143.17730430423 85.38241950691 60.963320743668 79.750871510881 68.415955002495 84.126790265678 63.763292841072 86.767483623195 59.903727478236 69.66970083904 52.775876242053 84.179435053998 119.5700331317 68.900318172704 69.056407923663 62.126807739976 70.813114514824 79.373667985214 54.308764538172 47.768347604671 62.235762490187 62.556329188881 67.736290310646 55.077123787169 45.528321907755 92.317335495929 155.49407818297 99.658805123407 54.658635177574 56.689272385741 64.838358539294 67.532968580577 115.21111468073 50.19414251215 66.46691860136 78.47342498205 83.662753121091 64.111377077326 77.159149095053 67.584006734633 83.274006296913 46.54313547072 66.289370151834 54.775733335597 42.103100626886 65.343773204382 120.18469550882 83.104952273852 73.551458041918 76.468649227008 100.83180596817 138.28135032079 119.95228047221 128.97382931625 72.415165369456 37.860576954351 92.273594300562 135.23503919783 96.713755407202 37.199304989136 38.089128530466 64.641992766214 216.96515745103 43.268777328571 76.631303496023 73.46219440111 81.34447095777 106.05681670657 81.017995944723 92.752021482731 68.082621204176 49.013309909659 43.197932866164 97.352899285997 83.758965661826 57.057092945488 58.750001824123 79.672606832669 105.81040147175 89.293436412453 56.44003759585 86.906252362295 70.052993162909 84.319054906666 100.57245108959 53.685283513787 76.594833447058 94.638566696209 83.468242359302 78.136462775213 81.401028419494 51.527493786334 72.661995960479 67.052964425571 69.930294696005 55.798066194289 102.54982674162 76.088929517858 66.988931506384 48.874016529797 127.07675319787 79.360373698215 63.444560696065 85.572764326087 93.132490148328 73.95090987179 55.070918735652 77.937728583278 60.023848876611 57.153156980091 79.997069965697 36.842153849041 74.349533011648 53.655971070649 64.934606784795 114.0066628452 94.157529525541 87.00015046731 89.076709119759 60.309546131001 73.602946919322 106.05228489461 98.063269983105 70.079901205507 84.461447652838 160.61719205308 109.64586885083 68.32686705955 155.79017947734 84.551307859823 79.309832550493 86.733797466128 62.727347756926 52.445165819757 84.788005906264 85.252930845742 77.738362618089 76.484030075727 70.812216278809 76.305220076456 101.66381392262 66.858304622847 68.162210572802 105.34959888803 72.460621194511 48.947271857462 30.482391600221 70.526569279779 58.602447563371 81.044996279092 80.588575152548 74.006767892207 67.560405201391 102.62351745105 90.169848965153 73.929673746591 132.18865784851 104.10926934453 69.601706828668 67.307810249469 45.649763455707 73.046925660295 70.573058342802 56.687514912451 61.953208580048 68.349730920294 58.643805362917 72.561206761327 89.927111550861 64.086945077552 80.893924052685 73.737455406572 70.893627006464 81.299938638513 85.268109240134 66.159153774664 117.8280577679 91.66819415045 103.84675572878 94.755468280347 77.476737330367 69.436428469122 60.528687898955 85.91345618667 55.986121080679 75.54304034288 69.452804968312 127.06331434753 135.7101397638 85.272463365971 60.812275450578 66.750215243794 64.733669387654 107.29161312934 70.535228165516 83.761228551127 80.931209308436 95.138446862379 80.286750352436 80.669910607124 89.229091620251 104.45447286857 94.077915228856 105.2376409004 101.07387463561 109.35397328709 75.22817409822 145.75284549208 140.73698960459 124.47536460904 74.264400580496 81.50773090421 93.958893749394 79.710622919433 116.54269299574 87.045641324668 86.372871916926 81.771966777286 91.627980215459 127.7814090749 95.856609514093 110.60554977998 96.476265901506 116.82601118652 90.322843108704 105.31968212304 108.49724902469 152.61738628632 149.26098801307 119.06857833258 134.96702752754 119.547395181 129.44782685579 133.2761274025 109.11703875897 109.87169994083 66.097985612141 149.70469527885 92.359061262098 88.19437604533 90.800338676196 65.766131155404 103.18825522497 129.48632352368 117.30505726681 93.844892116032 176.133746612 180.0598406881 75.066863527077 164.52295520339 70.102420697384 121.88282945824 39.478929907467 82.847359998346 170.35001512753 90.9654928143 160.51836264727 96.546659283147 98.056361032692 79.384428639915 114.50471701629 270.08834883558 99.505798709267 81.280592190751 102.61000267741 82.720773914035 117.19636898391 69.064635894292 337.46278793117 215.78841143039 109.5263637238 204.23195192137 202.38920551959 82.541105150976 70.739344637556 173.42376537177 166.02019177856 132.53023184668 123.70292243567 155.63317032023 169.09699290097 46.784224424301 117.21480385993 80.374608198037 192.79729675952 176.49023836808 132.4378966089 130.80290382538 357.6810824859 165.56949065323 150.19757333427 221.92317369987 47.423296579816 54.810803390324 62.843143384998 309.75124910046 101.31275041393 77.837433396624 93.981173953939 125.14145754718 115.2142756824 55.719165666942 149.93045122008 103.96198953807 142.41926033145 79.614553523448 177.24331895856 148.54850883272 82.541241627569 103.93601461026 120.32081681755 70.882714397063 98.114168853347 286.89951022764 218.12311054 71.141448347102 106.50095971694 138.00590758298 142.14457026501 111.94986077068 78.5188410063 135.20568768149 98.655172641147 102.39828149217 242.17482109455 202.94684204983 383.17018862407 90.245101702481 97.176515210367 139.30558566534 71.313622368005 187.8042008975 285.71491680023 222.17113952867 74.819184690919 93.35343515485 127.46577895859 278.18118086077 135.35664905852 195.29831861764 313.69098094241 239.81524237465 178.97879700009 174.51827856567 268.9769790724 81.16833954876 210.47437261028 154.30891900929 151.12305479028 239.95343716467 150.87933856196 185.1715953003 120.47910740559 187.52990937863 274.38337745007 252.97365145394 324.98498018098 243.98161756757 185.39953071472 173.51027323602 283.02172916612 169.94382239625 353.06922749039 292.43872998355 270.62406571269 225.87129745371 272.48430381956 166.93941845555 388.52608029046 274.54046015444 347.50899455212 345.66213457763 372.65216381742 239.44519579887 229.75459037155 304.88541091916 319.59439419301 304.11504754523 234.38723495535 316.61340022589 243.59495746862 390.10368424036 208.11177648203 178.77463076829 244.06785722269 340.71534332818 345.75073322055 300.25209417076 342.47689643604 279.11122780065 266.48742649561 305.21664419052 303.25630732247 317.30014158016 
SCALARS Resistivity_(log10) double 1
LOOKUP_TABLE default