# vtk DataFile Version 3.0
d-3__ created by libgimli-v1.5.0-1-g5991b6ac
ASCII
DATASET UNSTRUCTURED_GRID
POINTS 1483 double
3.3802423101098	12.435481574566	-0.57001420684378
3	12	-0.2857142857143
3.4959596309848	11.998298039034	0
3.2490070092203	12.168560129388	0
6.0395510135596	13.367156253372	-1.2757999763971
6.5930002103947	12.023472734859	-1.2922192071349
5.4998599382803	12.552571297657	-0.59337769664261
5.29662096318	11.932351047571	-1.5392209346082
5.6153020589615	9.1440579133635	-1.0774777831171
5.7237069713611	8.5589744845549	-0.30827017969781
5	9	-0.2857142857143
5.3151026533923	8.4249591108801	-0.38240156963578
2.3178923476779	4.1926464382665	0
2.5373292327812	4.4716333182052	-0.48281884804687
2.3342974478463	4.0018571812202	-0.30572640106363
1.9994701911036	4.4258543307655	0
4.8968211033092	12.507755029533	0
5	12	-0.2857142857143
5.2932790228536	12.494788035524	0
0	0	-0.2857142857143
0.54768630893449	0.55020446432687	-0.60775225926193
-0.16846798780902	-0.24002860812406	-0.65332445545953
-0.28063481777066	0.41453578455018	-0.44890469943706
7.7	3.575	0
7.3102059000399	3.7470939102263	0
7.7	3.6732286664853	-0.53772532608145
7.3176226410905	3.2857280588852	0
-0.7	-0.10798167686939	-0.47517111104905
-0.7	-0.57707899562378	-1.1376990549501
-0.7	-0.61986630133594	-0.43486724047509
6.3962361866998	10.611290418241	-1.3182185489848
6.565939673393	9.5694509864085	-0.57379796778735
7.1295911592009	10.496363016677	-0.48219980545192
6.3839624611364	10.341052129245	-0.35036617584397
7.7	14.3	-2.5
6.7623683783591	12.987112326146	-2.233077027779
7.7	13.059020885286	-3.3539705522597
7.7	13.327367479896	-2.129915020979
1	6	0
1	6	-0.2857142857143
0.93236760237426	6.49128333619	0
1.3454573625665	6.353105459937	0
2	5	-0.2857142857143
2.1684298754346	4.7403793023811	0
3.0226729813355	8.4836106439452	0
2.5164096947204	8.910651700233	-0.41109082170818
3.4071201441719	8.4167381876838	-0.59109415332551
2.5374808587914	8.1383747261781	-0.35604109466584
6.2778911301719	14.3	-0.61136458754231
6.2225356773765	13.691717475418	0
6.5208076177088	13.495118289851	-0.49928801204061
6.7358646795693	14.3	-0.39005656748015
5.7965188279432	13.281940723964	0
5.5320359851605	12.925291312368	0
5.353113789845	13.264183036004	0
5.5919457801018	13.101154188917	-0.33537516396337
7	10	-0.2857142857143
7	10	0
6.5010306427949	10.010760669106	0
6.8196744207924	9.5136576917357	0
7.7	1.1375	0
7.7	1.6430719769933	-0.42557297445049
7.1939383721229	1.4724531054162	0
7.7	1.625	0
6.3572581294301	1.4772201134971	-0.96507376287322
6.5574763981385	0.84898833643366	-0.48332647821142
6.7774291048203	1.7003141153393	-0.4123635555875
6.1433933962903	1.4220674799247	-0.28622251631329
-0.7	9.1984657118068	-1.9278839451739
0.33291529395702	8.3305676904572	-1.2970017952003
-0.7	8.1442617177323	-1.0898260028896
-0.7	7.644268062563	-2.0766032868031
4.508194357046	8.6258793740749	-0.60770874662543
5.0095189690676	8.5009469809039	0
4.7609249278557	8.7686419230913	0
6.2306672701993	2.67753718	0
6.6360398560532	2.4670661479797	-0.44686919005428
6.4910302172834	2.4939022421641	0
6.1550873755842	2.4572757142813	-0.33684154297057
1	1	0
1	1	-0.2857142857143
1.4901571161019	0.99574153349402	0
1.1736530561382	0.72346383359363	0
2	4	-0.2857142857143
2	4	0
1.6440539242474	4.1532454240512	0
7.7	6.9501255673919	-0.74418826283982
7	7	-0.2857142857143
6.7521552376889	6.497772044976	-0.66059363300197
7.7	6.3887218416049	-0.46884913673037
5.9482896260331	7.5800048202495	0
6	8	-0.2857142857143
6.3095291646476	7.6896230263426	0
6.1432247512519	7.3579252770212	-0.41388970597853
3.501272057481	12.437082442362	0
3.3297831413816	12.805427976196	0
3.6823393063421	12.851671876304	0
1.3671388209093	10.633374397873	-0.4152980605108
0.95248763025238	9.835503527633	-1.7808732395437
2.3518021577517	10.495200039554	-0.50930668321109
1.5373497846005	10.021005779616	-0.41781002197689
6.2054585007625	14.3	-1.3884356875417
6.9442913034148	14.3	-0.89278753613404
1	8	-0.2857142857143
0.54167473049383	7.7707286368021	-0.37916050195481
0.44975345341211	8.3808810318019	-0.31136669048163
1.022076618805	8.4121844676845	-0.45670843222423
0.89173681858685	4.6122796653579	0
1	5	-0.2857142857143
1.2386083631299	4.6841794176855	0
1.3923592539172	4.7130963353432	-0.25978315417498
6.4242299347383	5.6840176993625	-0.35514079575845
6	5	-0.2857142857143
6.3424541740313	5.2754910113697	0
6.0447933133998	5.5049876953384	0
5	2	0
5	2	-0.2857142857143
5.5190673049038	1.9208326821789	0
5.2306444928855	1.6547875838902	0
5	13	-0.2857142857143
5.257359886178	13.540476325965	-0.63012071696907
0	6	0
0	6	-0.2857142857143
0.066757795936057	6.5008369551487	0
0.29243888553297	6.1743316976873	0
7	9	-0.2857142857143
6.5033796411008	8.9981073418213	0
6.5607922823332	8.4440251373986	-0.63122800754088
6.811726958696	8.7028726276344	0
7	5	0
7	5	-0.2857142857143
6.4986646723997	4.9192017057136	0
6.7141996182955	5.3303468264748	0
7.7	9.5988491781319	-7.4736716195817
3.1507199964473	10.394874003632	-10
4.8663216648816	7.3792654266676	-10
5.1015502438684	11.553440122249	-6.405163284031
7	7	0
6.9589015254993	7.4884372736447	0
6.761634669635	7.2408783569561	0
6.0574437090791	0.20878539066113	-1.8779478182653
4.9838025543493	-1.3	-2.1179854334408
6.0308685444023	-1.3	-3.5425074203685
6.440522236286	-1.3	-2.0103523001383
3	2	0
3	2	-0.2857142857143
3.0105846506	1.4855923993349	0
2.6480485575569	1.6700894103009	0
5.0527203000088	13.535479310798	-1.5373151531841
5.0246691847863	14.3	-1.036131499603
4.1300067609037	14.3	-1.2024507502556
4.4744197407865	13.547407617085	-0.63586628370479
2.5813517996865	9.6286485974984	-1.0236151505326
2.2955236368793	9.5881134365907	-0.29154811067367
3	10	-0.2857142857143
6.4248505083522	12.522044346884	-0.42559946143008
6.465073985677	12.51782996062	0
6.1644652963082	12.36965297069	0
6.3832046574853	12.135664356038	0
2.9908655166747	12.498069465114	0
1.984703560175	7.5906357794687	-0.50777967523709
1.0508409188237	7.354634772545	-0.95680796450018
1.4515039911109	6.5829264157992	-0.56173008002516
1.3866216751759	7.5118935788728	-0.35488362790971
2.45	14.3	0
2.2168273415577	13.627179222019	0
2.4554693735383	13.497784276817	-0.39727655195048
3.032551925238	13.762466584345	0
6	11	-0.2857142857143
6	11	0
6.4843452951013	10.966514281357	0
6.2440599782187	11.234710090977	0
5.5	-0.5576923076923	0
5.247952850371	-0.29481663567353	0
5.5452342683804	-0.096294524539033	-0.49623355575102
5.1016398375367	-0.61489919294387	-0.38960315167385
2.3232496140345	4.0110297188843	-1.3835068702753
1.6586320571652	5.8268322896535	-1.5213554090482
0.71002746520551	3.976198472286	-1.505315421377
1.3296414347056	4.9089994064226	-0.82629172929831
5.6	14.3	0
4.6510156691765	14.3	-0.56274723813486
-0.090060726359069	5.5363033123106	-0.44581840212762
0	5	-0.2857142857143
-0.38456492153953	5.1805342841446	0
-0.7	5.0205501441189	-0.32507149572551
3	13	-0.2857142857143
5.1848675157348	3.2965660830064	0
5.4046165570399	2.9501485228537	-0.43988698776777
5.486289771732	3.4981838484395	0
5.4682750147717	3.0660382780841	0
0	8	0
0	8	-0.2857142857143
0.5178658825659	8.020802151125	0
0.25864598874121	7.6639427314904	0
6.7098208972434	7.2950601162224	-1.3269022195366
7.7	7.949747446039	-0.91833665053736
7.1577047253729	7.4844276204668	-0.64272934527953
4.5892004575887	3.5369189576522	-0.55981654583505
4.4420188491858	3.4660037233365	0
4.711527897636	3.7375259681419	0
4.3494632088922	3.8023533541114	0
4	6	-0.2857142857143
4	6	0
3.9913416390327	5.4988534517732	0
4.5093195747582	5.724109532591	0
1.4	14.3	0
1.5	13.55769230769	0
0.89284349994875	13.714781914708	0
1.2292962491126	13.670420041977	-0.37788942865261
4	9	-0.2857142857143
4	9	0
4.5502440226935	9.051086551406	0
4.2963154051231	9.3907765114078	0
4.5321110402369	7.5028925212181	-0.60552533206341
3.5085861108931	7.3893844432383	-0.64873189634878
4.0050480592533	7.4977657988521	0
4	8	-0.2857142857143
5.8961095330637	-1.3	-1.0125722125019
4.8982045728458	-1.3	-0.82217786726149
5.2296982103621	-0.31621891710017	-1.0679345669244
4.9010483556055	1.478997710586	0
4.5631533182214	1.9074133665015	-0.41231302454656
5.0320642355688	1.4518180616801	-0.36509190625555
3.5357179442866	0.46434418042464	-0.60031716899974
3.9407498163335	-0.4411178910574	-1.1087857494349
3.2826824657074	-0.47747544834602	-0.50866572047373
2.802260468126	-0.22902113419037	-1.4542342115515
1	13	0
1	13	-0.2857142857143
1.1191337005982	13.329221525091	0
1.4884720276527	13.02962190928	0
-0.21681247778723	8.5792000107362	0
-0.35118339610893	9.0917088673227	0
-0.7	9.0968147603684	-0.35256881313688
-0.7	8.9375	0
0.51662331659314	-0.40156299802931	-0.67799391089861
0.13474046208011	-1.3	-0.85683826964205
-0.16941603187845	-0.57512411281067	-1.4019543009948
6	13	-0.2857142857143
6	13	0
5.8068477026831	12.499749736815	0
6.1890713266052	12.67695534294	0
2.5984255358496	5.4578875982232	-0.67264342113488
2.2172109403706	5.4325217687574	0
2.4824672258873	4.9705265694472	0
2.6598112065826	5.3330483814808	0
-0.7	0.5146532048839	-0.51418317722913
-0.7	1.0492756199945	-0.88024243711367
-0.37698118088761	0.89350663208132	-0.33360419980628
-0.25096134668857	0.95145340086689	-0.90448711690516
6	2	-0.2857142857143
5.4002158317804	1.7678073061348	-0.50898482673054
5.8183999242367	2.5164331321023	-1.0840550371572
-0.13917028340788	5.5182991349521	0
0.31578338747353	5.7567158690792	0
6	12	0
6	12	-0.2857142857143
5.513035862904	11.994753403328	0
1.5285536174902	4.2362319729344	-0.43851980589517
0.57100063419133	12.499134596467	-0.56842257570583
1.2565986295401	13.42724014175	-1.149557674079
1.4486633887383	12.69302170761	-0.31714242590465
6.65	-1.3	0
6.903739311401	-1.3	-1.0953527719967
6.3980205255852	-0.38130956989248	-0.5855507841991
7.2175457166608	-0.5710098692386	-0.51938212652516
3	7	-0.2857142857143
3.5055774955602	6.7395375676091	-1.4094768265058
2.383927159844	7.4535505157878	-1.0620490471275
1	4	-0.2857142857143
1	4	0
1.2222221827385	4.2954008280594	0
0.82345085295407	4.2815033897546	0
5.6	-1.3	0
5.790373644402	-0.65252487431205	-0.38521635467031
[...]
CELL_DATA 5483
SCALARS Coverage double 1
LOOKUP_TABLE default
1.4917842052286 0.74325006965081 1.4062919764396 1.5648457904461 1.4377454643253 0.87917144514847 1.1375269534394 0.67805078273773 1.1175917041053 0.20613903954498 1.8555610697141 1.6704864125179 1.4818848723422 0.71718872428601 1.2370177685374 1.7927965591151 0.98817240781178 1.1449957268214 0.65193661616259 1.6519051535994 1.4131390369959 1.6958602190289 1.8946997597009 1.0794819281242 1.6002293320738 1.3826247307309 1.2352861238672 0.57922519489022 1.3716502846153 1.6645519084612 1.5849233022217 1.6882489890957 1.1983086704106 1.7951124313775 1.4841683587137 1.7670944775258 -0.37976963370932 1.8055962821314 0.33503947349508 1.702428213345 0.61742189280338 1.3607152030885 1.3822055111172 1.4536778406184 1.3057563089398 0.88344175549991 1.821494554483 1.0856297798928 0.95897231708382 0.56852062368207 0.68725506864427 1.2873392120216 1.369645877812 1.5110581300693 1.7436983632707 0.9675299182491 1.5034081191415 1.9083361755959 0.85835975271465 1.8259675378493 1.5207732006882 0.69492147961878 1.3912222355103 1.5139890885779 0.80870933516073 1.5743825809527 1.1835466735317 0.65730426268091 1.7017950587445 1.5858731154427 0.82839641641214 1.0807729628658 1.8004411615062 1.6849817539263 1.5341030246587 1.036230509481 0.66867152142631 1.2770343463908 1.9275825663152 0.69269045234251 1.1499433304742 0.81255841348246 1.4933460209867 1.1929254413223 1.483162121809 0.99861727294445 0.61462946322186 1.7824999027305 1.7706759712132 1.5379082654371 1.1920685337083 1.3751522444906 1.2787547020011 1.2067167512896 1.4478679191684 1.6253032624908 1.5760649010019 0.97936002153561 1.6446549833285 1.669017227627 1.2884436341099 1.7977996265179 0.98091866154298 1.5724743549591 1.1232932602497 1.558423924899 0.36552810911681 1.1508906811213 1.8182241542967 1.8884637890922 1.6989367608786 1.2884601613835 1.4826447757547 1.5384443689914 1.1510818369021 0.73899247337506 1.0025074641136 1.0352989852473 1.5526834995671 1.1997686339745 0.9543030613542 1.6187020429059 1.2549567887745 0.43231211759707 1.3140636588637 1.7753916069556 1.0642797090438 1.7853029328876 1.3232986007009 1.5488927365664 1.4977011504088 -0.1783530512793 1.0797823234082 1.4305404834211 0.81931530405457 1.5894141695035 -0.36704102204692 1.3617064512333 1.3635222386147 1.8612302244154 0.57764583504186 0.194786128337 1.7961539491031 1.6837482210545 1.5210726631683 1.4074199993437 0.90608952084787 0.78374665436603 0.95774963968267 0.59068885151075 0.41175082199313 1.8626558130794 0.82224793348235 1.2105776928433 1.4054805341352 1.6045477050605 1.5002225407203 1.0443816869342 1.7318412812946 0.82587861414647 1.3790212121149 0.76276506599485 1.0122250915134 1.5847333708681 1.8606000324874 1.6416847153096 0.6062860863313 1.8461834854752 1.4201150909668 1.7693411297425 1.572698840238 1.1650033376235 1.3302367244863 1.8431163969858 -0.030321235008812 1.8509868564291 1.9026863605411 1.7627842140045 1.6736285330744 0.17364031239731 1.5484224373837 0.44298405352556 1.1153326920038 -0.042407505424764 1.2082397852138 1.8789530018355 1.3873509823771 1.5678939616717 1.8197547405157 1.3230563629898 1.8630405774405 1.3262783956121 0.74181292571405 1.5938410044011 1.2860891161168 1.0766112217878 1.6278764503594 1.5388707806553 1.3914106315422 1.8467246544886 0.64955747443547 1.9361166577041 1.4828717592737 1.5010922333711 1.9376367460522 1.677920332874 1.6390897568023 1.4777590029313 1.0832854373121 -0.40043873304268 1.3732167519417 1.0667692596312 1.173089493818 1.8865871505646 1.8376207387474 1.8786632697268 1.8034323944426 1.6036679203548 0.85805321656287 0.85497576594044 1.3689311349342 1.741794380919 0.59536998415196 1.8812955993941 0.74433445242231 1.6766651200787 1.5918239283201 0.87728670435484 1.901006685605 1.1902186531366 0.91183750180251 0.87747498150054 -0.098805754470707 1.8604947636682 1.4784661022022 1.1786670974676 0.60353366159848 1.7580164240754 1.7374630340401 1.5397127266805 1.7510346178389 0.71057461494349 1.5680716924299 0.96509291952142 1.5784785558433 1.8297133579111 1.3306383405378 1.5250673686762 0.57430214079063 1.608300081312 0.68963135336615 1.6166112967419 0.49585430192998 0.21442715702725 0.056899841927816 0.45886553140009 0.87484623913135 1.8558833613483 1.3123011982863 1.8550966012078 1.1016768796452 1.1016006508381 1.5543089826307 1.3472314842089 1.896683946401 1.8150706720077 1.4573882463739 1.8570858050517 1.5500822088349 0.77686303933288 1.8441889530311 1.8769495847661 1.5508452081849 1.420917590295 1.8324922537268 1.5441075726504 1.8604408955418 1.5721202299928 1.6060022860441 1.7192513654486 1.6606527812289 1.9553695595653 1.4409173281871 0.53332796235987 0.5124944514987 1.2675853741034 0.978837069311 1.5649495189513 1.7008888737623 1.2950865764444 1.5217536483782 1.8230331488175 1.6734583174612 0.62003695877021 1.4601207151772 1.690334268986 0.72699098964649 0.38128007945558 0.85337779845483 0.51118831170651 0.45244983161172 1.5801287484947 1.3946433446763 1.0528543168133 0.81618087232443 1.1230827635008 1.6442544367436 1.3018708964391 1.5342600927054 1.1049064109877 0.73425403727382 1.5845908725175 1.2828784581284 1.2475586508559 0.65651054966185 1.1972064468407 1.5179681373095 1.0950275213723 1.4488383538582 1.1844248837801 1.8234502084845 1.5919131486848 1.5388844057559 1.4291858590275 1.9144675256802 1.271370002055 1.6789048269991 1.5649218698672 0.46740362611228 -0.60714226737344 1.634562779277 1.2122360565189 0.76581193685048 1.5400394143128 1.5388981859324 1.8064764466785 1.8967947849374 0.99436000948622 -0.56782604946292 0.86535439211969 1.3906674625044 1.2181728321642 -0.23359359298301 1.0796191088203 1.046126654037 1.4129800749025 0.92869268942297 1.5910219763372 1.4083140333483 1.2533904001325 1.5299653936936 1.7351158132245 1.7290207948128 0.62063921240946 1.8765783048117 1.0034305469995 0.16860677563003 1.3112316295815 1.7373262272473 0.52922261772302 1.2951028977365 1.3690054916687 0.74972741203926 1.3841567942926 1.7099108817039 1.4786081541314 0.89415365740892 1.7398122476901 1.6699074751383 1.2584979196952 1.3072655214939 0.97188235751834 1.4881675272693 0.30372822719655 0.6092348965207 1.1432201131806 1.2894019642719 1.5186444402397 0.76965730665528 0.47686146751471 1.7969054365284 1.8628317508043 1.8908368505392 1.5967662079976 1.3673180649581 1.8643111495608 1.8357231414977 0.57780280294399 0.83491112044444 1.4919816540312 0.99454192615788 -0.22478551985876 1.597005704062 1.4127982346363 1.4052369145921 1.5718855371406 1.6210983986301 1.4630585932545 1.4521020338837 1.559961999096 1.0771221547472 0.84005808398349 1.0043231304531 1.750080012031 1.9363685126595 1.2408423606782 1.3594444997113 1.6857548300398 1.8315498854592 1.2672686975261 1.5603241569714 1.5127154751752 0.71925354025735 1.8231911421252 1.451006939271 1.4243840986229 0.95943220887471 1.5539994106595 1.8176850526665 -0.34193463844029 1.5855972766755 1.5040402188388 0.53850730322421 1.4093953810602 1.3537097771111 1.0381289206364 0.19999321007868 0.17044015475233 1.5925488720308 0.31082623588909 1.6863796345874 1.359783326532 1.7543885735062 0.90560702473697 1.7361684170669 1.4503363437984 1.7380007962802 1.7904474195704 1.3984976236226 1.1930661199016 1.4185882102238 1.5546118177247 1.2827777119279 1.7639616983348 1.837145341878 1.5462604690483 1.1439860435819 1.2731618138015 1.183951232112 1.2292669323232 0.95225671806804 0.69269484458031 1.4503537442484 1.5253952048972 1.8382525015832 1.4813438471533 1.8852713795 1.4405425734025 1.681715072327 1.4738204345031 1.8920712085332 1.2943780796974 0.99897899862238 1.5781620939731 1.959185036382 1.5345410896457 0.87866714056577 1.3397138447953 -0.24008488146325 1.8345399708743 0.4859964780069 1.8142290472878 1.4767993379145 0.26235792058229 1.5877401867561 1.3036734495464 1.0720188936068 1.4724095779605 1.7171362978464 1.854289753608 1.4226794809678 1.4954744334593 1.7928736475717 1.6203110550101 1.3783730887847 0.7107034024492 1.5871731467737 1.5859188560917 1.5227746986843 0.65665467185356 0.56416405539898 1.4328149521939 1.2276699387219 1.4957845129621 0.83632881225306 1.8413508338977 1.6252916932568 0.82088250923218 1.9504294363994 1.4155988788329 1.0600135561917 0.62571258392931 0.83385514905955 0.98632868344388 0.55772554576745 1.6873159716725 1.6113333695982 0.0032942593230088 1.3622983825254 1.1540809289818 1.4476600611568 1.3326758589247 1.5520460261745 1.5302302433826 1.8214383166095 1.0392503914776 1.6030195933089 0.77767781456485 1.0744900190289 1.3758308959134 1.6150705758963 1.0882217175099 1.7854896834851 1.6185631182604 1.3132465998774 1.6026312136877 1.4309869657642 1.6593971420621 1.563420012911 1.6212452009458 1.5972530212629 0.40576131459546 1.3165525749581 1.4312418863001 1.8179701849071 0.77643596062932 1.7920885892544 0.94545566828642 0.90321882183331 1.3420659204757 1.778299965207 0.88679296089703 -0.66826332421902 1.7053224670924 1.5519446390527 1.256975434179 1.698830589931 1.4780016296041 0.65349909707358 0.8243388044468 1.8616943233361 0.93771867310929 1.576565209999 0.83214036368144 0.69095101014471 1.3591448323241 0.5634693977757 1.5589302099603 1.619815994411 1.5152881331336 0.10518568474529 1.1244158069637 1.6824252952961 1.2063596461711 1.542504960832 1.4223127174755 1.3961222429239 1.4283147034462 1.0735969109716 1.5875963084334 1.5758155659537 1.0281791345457 1.0654936763065 0.28214913258875 1.9510731681855 0.93742525659089 0.33800862012093 1.7290531215706 1.3178379332514 1.6053463932023 1.702485169622 1.6742235032224 0.64103931509997 0.85536310095828 1.6699483571331 1.3722039807165 1.6505037567608 1.1324703966862 1.5044525707579 0.84813753464307 1.0470221391188 0.88917233120529 1.5042073957868 1.2313851868897 0.67879148461812 1.8778833494191 1.6495958736858 -0.55719600760862 0.12405850104749 0.88938027086071 1.6777370786256 1.8822273679884 1.5538728556797 1.8415304001433 1.1770153623546 1.4575349523901 0.61146782159105 1.6699941339509 0.38384054380974 1.9737238085067 1.1159453068398 1.5908098572613 0.89129815705864 1.6093193800376 1.4713058373401 1.3396670565427 1.4095663852425 0.40047768070939 1.8258953508709 1.1478958604377 1.4850089374951 0.46747296262052 1.478248168204 1.5830037920525 0.95360843484326 1.3652649557038 0.89286285569073 1.6820237155034 1.1045331377427 1.4536448686054 1.3650571794843 1.2608143167071 1.8560288423113 0.73616464006685 0.42646271759167 -0.50386217673813 1.7820738088059 1.1313386698477 1.0446377164057 0.76032161822233 1.8253865806522 -0.20634196324504 1.6180873314172 1.5889280604382 1.1050729316692 1.0395815461502 1.7692654732223 1.8689192257414 1.462327461653 1.5377521671146 1.7840406515875 1.6910952492912 1.8529845299733 0.73143876462152 1.5950485564199 1.8329778379012 2.0258698529042 0.73099510172004 1.4386330514653 1.3900404529071 1.4606999987421 1.5997668407181 1.6115293873133 0.63526237277369 1.719312517923 0.73049064596204 1.1356822743311 1.4637066605615 1.9253625148269 1.1685448512212 1.4003628487326 0.13441383531251 1.6797858363324 1.6519688180099 1.1807166996824 0.27130230938358 1.3886177594075 0.7234295989946 1.6585058369468 1.21338029147 1.4761270664618 -0.32214348603147 1.5207895626586 0.69141105987774 0.77329279193236 1.843644276323 1.2648305510893 1.3530311547822 1.5300903312083 0.48054538253473 1.8604907273689 1.78672751024 1.5141384624348 1.8211348946136 0.65770875644569 1.6680975663451 1.6995107460447 1.5253730310501 1.0457806639902 1.7952429613727 0.50193678611961 1.2670831269858 1.3817745766804 1.1814403384886 0.79890817495253 1.7574695933028 1.5455904447873 1.3782065687381 1.3731452418629 0.71130480081985 1.3823492101059 -0.41886443333827 1.5904235540755 1.002062934991 -0.25137636635147 0.25346607165886 1.5285408835318 1.8099880030452 1.3528741907485 1.3726402758968 1.8871653911496 1.5329455430863 1.0802315774199 1.6121832367506 0.92040524223756 1.2035191050807 1.4859091307335 0.9645299988055 0.35773311120209 1.6796648516183 1.4358834530894 1.8417049152501 0.77102204200664 1.6745510534229 1.53608723265 1.4668715665804 1.561427835876 1.5622682877033 0.2131347250256 1.0266240165263 1.4266414465825 1.0419310547354 1.2279648174506 1.1351296279328 1.7703666371898 1.0680903527471 1.2512727433125 1.4650422039341 1.8088298546876 1.7414078652333 1.736013945921 0.64506187763564 1.8654681725726 1.4645205710368 0.76684715399407 1.1824619023373 1.4870372991829 1.65675443801 1.1184329036517 0.83758147155695 1.4317359368339 1.6066836141786 1.9250788340056 1.4250545956109 1.2998536955726 0.80944223786324 1.4063244216045 1.5718105811668 1.5818527660502 1.8138003295621 1.4300099892707 1.5986102492135 1.1458885637363 1.5321350645952 1.59580955834 0.82779882513812 1.8978723197398 1.3887630007975 0.58240442364845 1.5870720383218 0.89955035875495 1.5222182336647 1.227820743203 1.7215312046246 1.1996616871533 1.2137569704013 1.552829352981 1.1498553704319 1.6599917835088 1.845579394904 1.309963984826 1.6440216964721 1.4428409344824 0.47318849642459 1.1321832562505 1.7856310203833 1.7355200473045 0.24666442019107 1.5935200183687 -0.55718216173312 1.3949201305995 1.722865543275 1.2941481746786 0.64283746772505 1.756037912717 -0.68152179259527 1.7605552118772 1.318638734986 1.4204854690206 0.73564304805012 1.1606326015171 1.379295281829 1.0540802118189 1.4771388592721 1.0710906313867 1.7830807245145 0.76967870223082 1.423644124652 1.5007802511775 1.236001395167 1.3376944993732 1.587676954423 1.5853061674933 1.447888737586 1.1031785618366 0.6199213350809 0.750728700878 0.66020828660714 1.5157540178929 1.5691305057777 1.5818634445246 1.0596800704486 1.6666644335357 1.6069181248754 1.1542468504998 1.5815716819228 1.413936801821 1.6028155215306 0.51133705203097 0.95827574836902 1.5992799432601 1.2590035956758 0.94036018970976 1.3294674549241 1.3482553411698 1.0508799163402 1.2663824021526 1.538910046495 1.5227374414033 1.2043475462116 1.8456692701889 1.8062502119941 1.085216215863 1.5477670979124 0.71931284581475 1.3420913216237 0.6669932017917 1.6280345361403 -0.20584082168503 0.72889155494007 1.5352407920659 -0.25765359587611 1.68212851292 0.71063916043364 1.2883376824817 1.3166236921435 1.4283803618614 0.81087938590635 1.4012936990937 0.48447128895107 1.2419277651067 1.5643967047396 1.2595959605737 1.5628873100058 1.5437061100494 0.9889280104275 0.82642322435477 0.51681975547512 0.77803808308708 0.61806118970751 1.8413712934856 0.44119346189355 0.91241581532571 1.5229723443864 1.2656731763588 1.5909559935857 1.794553277079 1.6346482299669 1.6205737923303 1.2404136713532 1.3959299943116 1.5067281213376 1.5271285577675 1.6808001549519 0.55394559609715 1.5751373711965 1.5755966181214 1.1670155794716 1.1588374149903 1.6497599295081 1.9309571520251 1.587322450506 1.7205537530064 0.66699528599985 1.2349364178704 1.790436644773 1.6161002699945 1.3027316405124 1.7198166550144 1.0329945356342 1.3681662397005 0.43290346008986 1.6940530067866 1.3012143761663 0.693331573787 1.4275915660889 1.525800209922 1.4152579337906 -0.15120919313134 1.2686379350205 1.5725142696673 1.8898950679413 0.32907457272014 1.768175582736 0.84261021913579 0.2106917812297 1.204172236697 -0.43702044106466 1.7124553309029 1.9061370408137 1.4252942792102 0.99371062393042 1.5158326998542 1.7830759028046 0.40979791233046 1.5717132463654 1.4939434486807 0.20969492728072 1.4678971701768 1.3447822104447 1.6358834464537 0.94685964374112 0.52420322834282 1.4231815193268 0.63705575035416 1.251706271348 1.8746627040262 1.3496693956191 1.4822764211497 1.3483386261325 1.62848460379 0.34867518909259 0.40216813674375 0.97330551546351 2.0217421273105 1.1312734061779 0.61375013398441 1.5041264831699 1.570904868068 1.0534892198275 1.3564803504763 1.2328522896573 1.3695410693814 1.5892415981435 1.4707314447636 0.74134088998412 1.2683254673567 1.3301732387476 1.6275065843289 1.8937965009494 0.60541074865106 0.97310437464761 0.49782428440144 1.5068698337409 1.3123834931591 0.81973064325594 0.98192897027479 1.6857016313681 0.51390913131341 1.1810353759308 1.0594337788546 1.2775522635479 1.7482548289729 1.2396800859824 1.1547219745157 1.7847623322744 1.8869895297225 1.546772908163 1.7356251724633 1.6219901558435 1.2399187194116 0.78154701973584 0.75269896936917 1.4761932839309 1.0602720846927 1.1754797554991 1.4895248407746 0.76003777545604 1.6586298850668 -0.14847752202313 1.7934890564909 1.5990651408091 1.3462256853343 0.56308142478817 0.67433113919029 1.7707490069139 -0.027639001478604 1.1498822341656 1.368825228339 0.59807359052877 1.1414769608578 1.9001317083193 1.7735014794456 1.5219624375862 0.66342721549568 1.7305189326071 1.6727358156688 0.34335255119966 0.92278159358563 1.6415801968161 1.0087955996963 1.5359535253152 1.5307994800418 0.93159233881389 1.3686218699727 1.2400515968305 0.75425131966332 0.63781191003047 0.63508159613639 1.7338958866273 1.8463981871685 2.4645872459994 1.5640227188555 0.90096889623075 1.6074744907982 1.453371236845 0.95386194367669 1.4912905257989 1.6993148498208 0.50742043346422 1.7490407189189 0.88446444353118 1.7394508695958 1.5695595106489 0.74652190511402 1.2033690089205 1.5072804425231 1.3971186085416 1.2305338684703 0.89777572100651 1.6391707830386 1.8123546565882 0.84617126161609 1.698012656173 1.7507089329414 0.48946920249077 1.9654336548585 1.4072189930119 1.1789901052506 1.1230812051054 1.1034575509698 1.5848128421413 1.4617172154397 1.7057498221692 0.92307856393988 1.7604415145858 1.3623071456675 1.4295407688181 1.3210231247993 1.0348419234399 0.658267386104 1.8887851002088 1.8492902742745 1.4179010992427 1.9182353795216 1.05505705629 1.0319406985192 1.5069746124506 1.4935871586534 1.3488871982492 1.3515016580497 1.5001725522142 1.0468428942886 1.8151425514345 1.8491031825833 1.3961768656242 1.0616977003095 0.79476660700311 1.3991465535839 1.2436180626544 0.31472611613058 1.5511841774466 1.7047879556091 1.2769625738319 1.8242407559203 1.32860277011 1.0777670796147 1.8868839784723 1.5391705878823 0.72959130683891 0.72433096668664 1.2824093557737 1.7901997622628 1.1754632144416 1.0534532652497 1.5907472863569 1.3044829825588 1.7136814775677 1.6050413581156 1.2166887891311 1.3746352214176 1.7778480573588 0.89242736122623 1.5660251681194 1.6410402493973 1.8716674474187 1.4849856254765 1.2711784885174 1.7734191084116 1.7550880883573 1.8009984798702 1.5020487094562 1.4494467075597 1.4868493284068 1.6012459983727 1.4768448171041 0.93351336429875 0.042631772535603 0.87634732719086 0.78854136549911 0.79072617523448 1.5521539035084 1.2656261948444 1.751992104883 1.2291996007571 1.5258334736588 1.2721124080478 0.61099154855951 1.7659773039763 1.5424266454655 1.621822393285 -0.36834770142138 1.8505815228636 1.6076139425191 1.0340824721685 1.8593369262506 1.1807679548478 1.1827338041338 1.9140925046598 1.2856791176293 0.61119300691296 1.4441323336211 1.1890811123333 1.0964002444901 1.7891400383342 0.94495844790695 1.6506818154348 1.3225963988271 1.3221261362834 1.0208593151562 1.7614496425066 0.25259652783973 0.68543879952017 -0.50445472625289 1.3853548753862 1.439631159844 0.7882893575558 1.0557984721952 1.5698241956595 1.7558613096476 1.4131214003972 1.6132638621118 0.87931411460794 0.89973303452962 1.8393527447632 1.753595705546 1.488938973527 1.5946236389625 1.4754351829544 1.4153630416028 0.58998589751303 1.3788180713181 1.6670050800878 -0.1500682831141 1.353771560326 1.8820538113407 1.423125391832 1.417567976448 1.2401087792484 0.88269969493403 0.47017344720007 1.5235896234505 0.80238697662053 1.3510478832739 1.4036775109769 1.5470648206979 1.6183529681116 1.7647192787299 1.7846185527827 0.32449237125309 1.4673050467677 1.1088606952092 0.42990927417143 1.8119565474374 -0.46067007947689 0.57350775241026 1.2874278697662 1.6561434179213 0.98671883734566 1.4891156215826 0.56898925459548 1.4149788004075 1.0296889011666 1.3115148930865 0.96483769482352 1.0248242897935 1.8984590511361 1.4786131590665 0.72608337016837 -0.068426784942314 1.0726492487509 1.3207542855539 1.5546715004716 1.4531711613276 0.96071438953489 1.8382256784506 1.3405763422709 1.5036676284235 1.4378820701944 0.75140406730063 1.5655649980415 1.5287157657568