# vtk DataFile Version 3.0
d-3__ created by libgimli-v1.5.0-1-g5991b6ac
ASCII
DATASET UNSTRUCTURED_GRID
POINTS 1483 double
3.3802423101098	12.435481574566	-0.57001420684378
3	12	-0.2857142857143
3.4959596309848	11.998298039034	0
3.2490070092203	12.168560129388	0
6.0395510135596	13.367156253372	-1.2757999763971
6.5930002103947	12.023472734859	-1.2922192071349
5.4998599382803	12.552571297657	-0.59337769664261
5.29662096318	11.932351047571	-1.5392209346082
5.6153020589615	9.1440579133635	-1.0774777831171
5.7237069713611	8.5589744845549	-0.30827017969781
5	9	-0.2857142857143
5.3151026533923	8.4249591108801	-0.38240156963578
2.3178923476779	4.1926464382665	0
2.5373292327812	4.4716333182052	-0.48281884804687
2.3342974478463	4.0018571812202	-0.30572640106363
1.9994701911036	4.4258543307655	0
4.8968211033092	12.507755029533	0
5	12	-0.2857142857143
5.2932790228536	12.494788035524	0
0	0	-0.2857142857143
0.54768630893449	0.55020446432687	-0.60775225926193
-0.16846798780902	-0.24002860812406	-0.65332445545953
-0.28063481777066	0.41453578455018	-0.44890469943706
7.7	3.575	0
7.3102059000399	3.7470939102263	0
7.7	3.6732286664853	-0.53772532608145
7.3176226410905	3.2857280588852	0
-0.7	-0.10798167686939	-0.47517111104905
-0.7	-0.57707899562378	-1.1376990549501
-0.7	-0.61986630133594	-0.43486724047509
6.3962361866998	10.611290418241	-1.3182185489848
6.565939673393	9.5694509864085	-0.57379796778735
7.1295911592009	10.496363016677	-0.48219980545192
6.3839624611364	10.341052129245	-0.35036617584397
7.7	14.3	-2.5
6.7623683783591	12.987112326146	-2.233077027779
7.7	13.059020885286	-3.3539705522597
7.7	13.327367479896	-2.129915020979
1	6	0
1	6	-0.2857142857143
0.93236760237426	6.49128333619	0
1.3454573625665	6.353105459937	0
2	5	-0.2857142857143
2.1684298754346	4.7403793023811	0
3.0226729813355	8.4836106439452	0
2.5164096947204	8.910651700233	-0.41109082170818
3.4071201441719	8.4167381876838	-0.59109415332551
2.5374808587914	8.1383747261781	-0.35604109466584
6.2778911301719	14.3	-0.61136458754231
6.2225356773765	13.691717475418	0
6.5208076177088	13.495118289851	-0.49928801204061
6.7358646795693	14.3	-0.39005656748015
5.7965188279432	13.281940723964	0
5.5320359851605	12.925291312368	0
5.353113789845	13.264183036004	0
5.5919457801018	13.101154188917	-0.33537516396337
7	10	-0.2857142857143
7	10	0
6.5010306427949	10.010760669106	0
6.8196744207924	9.5136576917357	0
7.7	1.1375	0
7.7	1.6430719769933	-0.42557297445049
7.1939383721229	1.4724531054162	0
7.7	1.625	0
6.3572581294301	1.4772201134971	-0.96507376287322
6.5574763981385	0.84898833643366	-0.48332647821142
6.7774291048203	1.7003141153393	-0.4123635555875
6.1433933962903	1.4220674799247	-0.28622251631329
-0.7	9.1984657118068	-1.9278839451739
0.33291529395702	8.3305676904572	-1.2970017952003
-0.7	8.1442617177323	-1.0898260028896
-0.7	7.644268062563	-2.0766032868031
4.508194357046	8.6258793740749	-0.60770874662543
5.0095189690676	8.5009469809039	0
4.7609249278557	8.7686419230913	0
6.2306672701993	2.67753718	0
6.6360398560532	2.4670661479797	-0.44686919005428
6.4910302172834	2.4939022421641	0
6.1550873755842	2.4572757142813	-0.33684154297057
1	1	0
1	1	-0.2857142857143
1.4901571161019	0.99574153349402	0
1.1736530561382	0.72346383359363	0
2	4	-0.2857142857143
2	4	0
1.6440539242474	4.1532454240512	0
7.7	6.9501255673919	-0.74418826283982
7	7	-0.2857142857143
6.7521552376889	6.497772044976	-0.66059363300197
7.7	6.3887218416049	-0.46884913673037
5.9482896260331	7.5800048202495	0
6	8	-0.2857142857143
6.3095291646476	7.6896230263426	0
6.1432247512519	7.3579252770212	-0.41388970597853
3.501272057481	12.437082442362	0
3.3297831413816	12.805427976196	0
3.6823393063421	12.851671876304	0
1.3671388209093	10.633374397873	-0.4152980605108
0.95248763025238	9.835503527633	-1.7808732395437
2.3518021577517	10.495200039554	-0.50930668321109
1.5373497846005	10.021005779616	-0.41781002197689
6.2054585007625	14.3	-1.3884356875417
6.9442913034148	14.3	-0.89278753613404
1	8	-0.2857142857143
0.54167473049383	7.7707286368021	-0.37916050195481
0.44975345341211	8.3808810318019	-0.31136669048163
1.022076618805	8.4121844676845	-0.45670843222423
0.89173681858685	4.6122796653579	0
1	5	-0.2857142857143
1.2386083631299	4.6841794176855	0
1.3923592539172	4.7130963353432	-0.25978315417498
6.4242299347383	5.6840176993625	-0.35514079575845
6	5	-0.2857142857143
6.3424541740313	5.2754910113697	0
6.0447933133998	5.5049876953384	0
5	2	0
5	2	-0.2857142857143
5.5190673049038	1.9208326821789	0
5.2306444928855	1.6547875838902	0
5	13	-0.2857142857143
5.257359886178	13.540476325965	-0.63012071696907
0	6	0
0	6	-0.2857142857143
0.066757795936057	6.5008369551487	0
0.29243888553297	6.1743316976873	0
7	9	-0.2857142857143
6.5033796411008	8.9981073418213	0
6.5607922823332	8.4440251373986	-0.63122800754088
6.811726958696	8.7028726276344	0
7	5	0
7	5	-0.2857142857143
6.4986646723997	4.9192017057136	0
6.7141996182955	5.3303468264748	0
7.7	9.5988491781319	-7.4736716195817
3.1507199964473	10.394874003632	-10
4.8663216648816	7.3792654266676	-10
5.1015502438684	11.553440122249	-6.405163284031
7	7	0
6.9589015254993	7.4884372736447	0
6.761634669635	7.2408783569561	0
6.0574437090791	0.20878539066113	-1.8779478182653
4.9838025543493	-1.3	-2.1179854334408
6.0308685444023	-1.3	-3.5425074203685
6.440522236286	-1.3	-2.0103523001383
3	2	0
3	2	-0.2857142857143
3.0105846506	1.4855923993349	0
2.6480485575569	1.6700894103009	0
5.0527203000088	13.535479310798	-1.5373151531841
5.0246691847863	14.3	-1.036131499603
4.1300067609037	14.3	-1.2024507502556
4.4744197407865	13.547407617085	-0.63586628370479
2.5813517996865	9.6286485974984	-1.0236151505326
2.2955236368793	9.5881134365907	-0.29154811067367
3	10	-0.2857142857143
6.4248505083522	12.522044346884	-0.42559946143008
6.465073985677	12.51782996062	0
6.1644652963082	12.36965297069	0
6.3832046574853	12.135664356038	0
2.9908655166747	12.498069465114	0
1.984703560175	7.5906357794687	-0.50777967523709
1.0508409188237	7.354634772545	-0.95680796450018
1.4515039911109	6.5829264157992	-0.56173008002516
1.3866216751759	7.5118935788728	-0.35488362790971
2.45	14.3	0
2.2168273415577	13.627179222019	0
2.4554693735383	13.497784276817	-0.39727655195048
3.032551925238	13.762466584345	0
6	11	-0.2857142857143
6	11	0
6.4843452951013	10.966514281357	0
6.2440599782187	11.234710090977	0
5.5	-0.5576923076923	0
5.247952850371	-0.29481663567353	0
5.5452342683804	-0.096294524539033	-0.49623355575102
5.1016398375367	-0.61489919294387	-0.38960315167385
2.3232496140345	4.0110297188843	-1.3835068702753
1.6586320571652	5.8268322896535	-1.5213554090482
0.71002746520551	3.976198472286	-1.505315421377
1.3296414347056	4.9089994064226	-0.82629172929831
5.6	14.3	0
4.6510156691765	14.3	-0.56274723813486
-0.090060726359069	5.5363033123106	-0.44581840212762
0	5	-0.2857142857143
-0.38456492153953	5.1805342841446	0
-0.7	5.0205501441189	-0.32507149572551
3	13	-0.2857142857143
5.1848675157348	3.2965660830064	0
5.4046165570399	2.9501485228537	-0.43988698776777
5.486289771732	3.4981838484395	0
5.4682750147717	3.0660382780841	0
0	8	0
0	8	-0.2857142857143
0.5178658825659	8.020802151125	0
0.25864598874121	7.6639427314904	0
6.7098208972434	7.2950601162224	-1.3269022195366
7.7	7.949747446039	-0.91833665053736
7.1577047253729	7.4844276204668	-0.64272934527953
4.5892004575887	3.5369189576522	-0.55981654583505
4.4420188491858	3.4660037233365	0
4.711527897636	3.7375259681419	0
4.3494632088922	3.8023533541114	0
4	6	-0.2857142857143
4	6	0
3.9913416390327	5.4988534517732	0
4.5093195747582	5.724109532591	0
1.4	14.3	0
1.5	13.55769230769	0
0.89284349994875	13.714781914708	0
1.2292962491126	13.670420041977	-0.37788942865261
4	9	-0.2857142857143
4	9	0
4.5502440226935	9.051086551406	0
4.2963154051231	9.3907765114078	0
4.5321110402369	7.5028925212181	-0.60552533206341
3.5085861108931	7.3893844432383	-0.64873189634878
4.0050480592533	7.4977657988521	0
4	8	-0.2857142857143
5.8961095330637	-1.3	-1.0125722125019
4.8982045728458	-1.3	-0.82217786726149
5.2296982103621	-0.31621891710017	-1.0679345669244
4.9010483556055	1.478997710586	0
4.5631533182214	1.9074133665015	-0.41231302454656
5.0320642355688	1.4518180616801	-0.36509190625555
3.5357179442866	0.46434418042464	-0.60031716899974
3.9407498163335	-0.4411178910574	-1.1087857494349
3.2826824657074	-0.47747544834602	-0.50866572047373
2.802260468126	-0.22902113419037	-1.4542342115515
1	13	0
1	13	-0.2857142857143
1.1191337005982	13.329221525091	0
1.4884720276527	13.02962190928	0
-0.21681247778723	8.5792000107362	0
-0.35118339610893	9.0917088673227	0
-0.7	9.0968147603684	-0.35256881313688
-0.7	8.9375	0
0.51662331659314	-0.40156299802931	-0.67799391089861
0.13474046208011	-1.3	-0.85683826964205
-0.16941603187845	-0.57512411281067	-1.4019543009948
6	13	-0.2857142857143
6	13	0
5.8068477026831	12.499749736815	0
6.1890713266052	12.67695534294	0
2.5984255358496	5.4578875982232	-0.67264342113488
2.2172109403706	5.4325217687574	0
2.4824672258873	4.9705265694472	0
2.6598112065826	5.3330483814808	0
-0.7	0.5146532048839	-0.51418317722913
-0.7	1.0492756199945	-0.88024243711367
-0.37698118088761	0.89350663208132	-0.33360419980628
-0.25096134668857	0.95145340086689	-0.90448711690516
6	2	-0.2857142857143
5.4002158317804	1.7678073061348	-0.50898482673054
5.8183999242367	2.5164331321023	-1.0840550371572
-0.13917028340788	5.5182991349521	0
0.31578338747353	5.7567158690792	0
6	12	0
6	12	-0.2857142857143
5.513035862904	11.994753403328	0
1.5285536174902	4.2362319729344	-0.43851980589517
0.57100063419133	12.499134596467	-0.56842257570583
1.2565986295401	13.42724014175	-1.149557674079
1.4486633887383	12.69302170761	-0.31714242590465
6.65	-1.3	0
6.903739311401	-1.3	-1.0953527719967
6.3980205255852	-0.38130956989248	-0.5855507841991
7.2175457166608	-0.5710098692386	-0.51938212652516
3	7	-0.2857142857143
3.5055774955602	6.7395375676091	-1.4094768265058
2.383927159844	7.4535505157878	-1.0620490471275
1	4	-0.2857142857143
1	4	0
1.2222221827385	4.2954008280594	0
0.82345085295407	4.2815033897546	0
5.6	-1.3	0
5.790373644402	-0.65252487431205	-0.38521635467031
[...]
CELL_DATA 5483
SCALARS Coverage double 1
LOOKUP_TABLE default
1.4917842052284 0.74325006965091 1.4062919764398 1.5648457904464 1.4377454643255 0.87917144514835 1.1375269534394 0.67805078273763 1.1175917041052 0.20613903954507 1.855561069714 1.6704864125182 1.4818848723421 0.71718872428606 1.2370177685374 1.792796559115 0.98817240781186 1.1449957268214 0.65193661616263 1.6519051535992 1.4131390369959 1.6958602190288 1.8946997597009 1.0794819281238 1.6002293320737 1.3826247307307 1.2352861238672 0.57922519489028 1.3716502846154 1.6645519084609 1.5849233022218 1.6882489890957 1.1983086704105 1.7951124313775 1.4841683587138 1.7670944775257 -0.37976963370938 1.805596282131 0.33503947349533 1.7024282133449 0.61742189280338 1.3607152030885 1.3822055111173 1.4536778406182 1.3057563089399 0.88344175549989 1.8214945544832 1.0856297798929 0.95897231708387 0.56852062368215 0.68725506864418 1.2873392120217 1.3696458778119 1.5110581300692 1.7436983632707 0.9675299182489 1.5034081191417 1.9083361755961 0.85835975271465 1.8259675378492 1.5207732006878 0.69492147961899 1.3912222355102 1.5139890885777 0.80870933516087 1.5743825809526 1.1835466735317 0.65730426268073 1.7017950587446 1.5858731154436 0.82839641641187 1.0807729628658 1.8004411615062 1.6849817539263 1.5341030246588 1.036230509481 0.66867152142653 1.2770343463907 1.927582566315 0.69269045234273 1.1499433304745 0.81255841348206 1.4933460209869 1.1929254413223 1.4831621218087 0.99861727294441 0.61462946322186 1.7824999027305 1.7706759712134 1.537908265437 1.1920685337082 1.3751522444907 1.278754702001 1.2067167512895 1.4478679191684 1.6253032624912 1.5760649010022 0.97936002153568 1.6446549833286 1.669017227627 1.2884436341096 1.7977996265179 0.98091866154262 1.5724743549591 1.1232932602498 1.558423924899 0.36552810911706 1.1508906811211 1.8182241542968 1.8884637890926 1.698936760879 1.2884601613836 1.4826447757549 1.5384443689921 1.1510818369021 0.73899247337509 1.0025074641137 1.0352989852474 1.5526834995674 1.1997686339745 0.95430306135424 1.6187020429063 1.2549567887746 0.4323121175971 1.3140636588642 1.7753916069557 1.0642797090439 1.7853029328875 1.3232986007009 1.5488927365662 1.4977011504089 -0.1783530512794 1.0797823234083 1.430540483421 0.81931530405419 1.5894141695038 -0.36704102204687 1.3617064512331 1.3635222386145 1.8612302244153 0.57764583504195 0.19478612833696 1.7961539491027 1.6837482210546 1.5210726631682 1.4074199993437 0.90608952084784 0.78374665436624 0.95774963968249 0.5906888515107 0.41175082199338 1.8626558130797 0.82224793348241 1.2105776928432 1.4054805341348 1.6045477050605 1.5002225407203 1.0443816869342 1.7318412812946 0.82587861414668 1.3790212121148 0.76276506599484 1.0122250915135 1.5847333708678 1.8606000324874 1.6416847153095 0.60628608633138 1.8461834854759 1.4201150909668 1.7693411297426 1.572698840238 1.1650033376236 1.3302367244862 1.8431163969855 -0.030321235008622 1.850986856429 1.9026863605407 1.7627842140047 1.6736285330745 0.1736403123974 1.548422437384 0.44298405352567 1.1153326920032 -0.042407505424778 1.2082397852139 1.8789530018359 1.3873509823768 1.5678939616716 1.8197547405159 1.3230563629898 1.8630405774403 1.3262783956119 0.74181292571408 1.5938410044009 1.2860891161167 1.076611221788 1.62787645036 1.5388707806554 1.391410631542 1.846724654489 0.64955747443573 1.9361166577041 1.4828717592743 1.501092233371 1.9376367460529 1.6779203328738 1.6390897568021 1.4777590029314 1.0832854373121 -0.40043873304279 1.3732167519415 1.0667692596313 1.1730894938181 1.8865871505645 1.8376207387474 1.8786632697267 1.8034323944426 1.6036679203548 0.85805321656277 0.85497576594049 1.3689311349341 1.7417943809187 0.59536998415205 1.8812955993938 0.74433445242186 1.6766651200788 1.5918239283208 0.877286704355 1.9010066856052 1.1902186531368 0.91183750180246 0.87747498150052 -0.098805754470707 1.8604947636684 1.4784661022021 1.1786670974676 0.60353366159859 1.7580164240754 1.7374630340405 1.5397127266809 1.7510346178388 0.71057461494352 1.5680716924298 0.96509291952114 1.5784785558438 1.8297133579114 1.3306383405379 1.5250673686764 0.57430214079061 1.6083000813121 0.68963135336621 1.6166112967418 0.49585430193011 0.21442715702734 0.056899841927728 0.45886553140016 0.87484623913131 1.8558833613486 1.3123011982867 1.8550966012079 1.1016768796458 1.101600650838 1.554308982631 1.3472314842093 1.8966839464015 1.815070672008 1.457388246374 1.8570858050517 1.5500822088346 0.77686303933304 1.844188953031 1.8769495847662 1.550845208185 1.420917590295 1.8324922537267 1.5441075726504 1.8604408955419 1.5721202299933 1.6060022860438 1.7192513654488 1.6606527812287 1.9553695595651 1.440917328187 0.53332796236001 0.51249445149878 1.2675853741032 0.97883706931119 1.5649495189514 1.7008888737625 1.2950865764444 1.5217536483781 1.8230331488175 1.6734583174612 0.62003695877044 1.4601207151777 1.6903342689863 0.72699098964677 0.38128007945566 0.85337779845486 0.51118831170658 0.45244983161168 1.5801287484946 1.3946433446763 1.0528543168134 0.81618087232459 1.1230827635007 1.6442544367437 1.3018708964394 1.5342600927057 1.1049064109875 0.73425403727396 1.5845908725173 1.2828784581284 1.2475586508559 0.65651054966142 1.1972064468407 1.5179681373093 1.0950275213723 1.4488383538582 1.18442488378 1.8234502084847 1.5919131486855 1.5388844057556 1.4291858590272 1.9144675256804 1.2713700020549 1.6789048269994 1.564921869867 0.46740362611226 -0.60714226737346 1.634562779277 1.212236056519 0.7658119368504 1.5400394143132 1.5388981859331 1.8064764466784 1.8967947849373 0.99436000948626 -0.56782604946303 0.86535439211935 1.3906674625044 1.2181728321642 -0.233593592983 1.0796191088204 1.046126654037 1.4129800749024 0.92869268942298 1.591021976337 1.4083140333483 1.2533904001321 1.5299653936934 1.7351158132246 1.7290207948128 0.6206392124091 1.8765783048119 1.0034305469992 0.16860677562988 1.3112316295816 1.7373262272473 0.52922261772305 1.2951028977366 1.3690054916687 0.74972741203919 1.3841567942926 1.7099108817042 1.4786081541314 0.89415365740853 1.7398122476901 1.6699074751383 1.2584979196952 1.3072655214939 0.97188235751784 1.4881675272693 0.30372822719633 0.60923489652048 1.1432201131807 1.2894019642719 1.5186444402398 0.76965730665535 0.47686146751485 1.7969054365284 1.8628317508045 1.8908368505395 1.5967662079973 1.3673180649578 1.8643111495604 1.8357231414977 0.57780280294406 0.83491112044447 1.4919816540315 0.99454192615729 -0.22478551985882 1.5970057040618 1.4127982346366 1.405236914592 1.5718855371408 1.6210983986297 1.4630585932552 1.4521020338842 1.5599619990959 1.0771221547474 0.84005808398349 1.0043231304533 1.750080012031 1.9363685126595 1.2408423606784 1.3594444997112 1.6857548300397 1.8315498854591 1.2672686975258 1.5603241569722 1.5127154751753 0.71925354025756 1.8231911421251 1.4510069392711 1.4243840986229 0.95943220887484 1.55399941066 1.8176850526661 -0.34193463844042 1.5855972766752 1.5040402188383 0.53850730322421 1.4093953810601 1.3537097771109 1.0381289206365 0.19999321007872 0.17044015475231 1.5925488720308 0.31082623588911 1.6863796345873 1.3597833265327 1.7543885735063 0.90560702473657 1.7361684170669 1.4503363437987 1.7380007962803 1.7904474195705 1.3984976236226 1.1930661199015 1.4185882102237 1.554611817725 1.2827777119279 1.7639616983345 1.8371453418781 1.546260469048 1.143986043582 1.2731618138018 1.183951232112 1.2292669323232 0.95225671806822 0.69269484458032 1.4503537442486 1.5253952048975 1.8382525015835 1.4813438471531 1.8852713795003 1.4405425734025 1.6817150723272 1.4738204345034 1.8920712085339 1.2943780796975 0.99897899862226 1.578162093973 1.9591850363819 1.5345410896457 0.87866714056584 1.3397138447955 -0.24008488146334 1.8345399708743 0.48599647800679 1.8142290472877 1.4767993379148 0.26235792058208 1.5877401867557 1.3036734495465 1.0720188936069 1.4724095779604 1.7171362978464 1.8542897536081 1.4226794809677 1.4954744334593 1.7928736475717 1.6203110550102 1.3783730887846 0.71070340244928 1.5871731467737 1.5859188560919 1.5227746986846 0.65665467185369 0.56416405539918 1.4328149521938 1.2276699387219 1.4957845129626 0.83632881225324 1.8413508338979 1.6252916932569 0.82088250923224 1.9504294363993 1.415598878833 1.0600135561917 0.62571258392928 0.83385514905957 0.98632868344397 0.5577255457673 1.6873159716724 1.611333369598 0.0032942593228843 1.3622983825254 1.1540809289818 1.4476600611572 1.3326758589246 1.5520460261745 1.5302302433825 1.8214383166095 1.0392503914779 1.6030195933085 0.77767781456495 1.0744900190289 1.3758308959135 1.6150705758964 1.0882217175099 1.7854896834851 1.61856311826 1.3132465998777 1.6026312136875 1.4309869657643 1.6593971420623 1.5634200129113 1.6212452009454 1.5972530212629 0.40576131459548 1.3165525749584 1.4312418863003 1.817970184907 0.77643596062938 1.7920885892547 0.94545566828662 0.90321882183322 1.3420659204755 1.778299965207 0.88679296089653 -0.66826332421903 1.7053224670925 1.5519446390526 1.2569754341789 1.698830589931 1.478001629604 0.65349909707374 0.82433880444672 1.861694323336 0.93771867310921 1.5765652099991 0.83214036368139 0.69095101014494 1.359144832324 0.56346939777562 1.5589302099606 1.6198159944109 1.5152881331341 0.10518568474541 1.1244158069634 1.6824252952962 1.2063596461709 1.5425049608318 1.4223127174756 1.3961222429238 1.4283147034462 1.0735969109718 1.5875963084336 1.5758155659533 1.0281791345457 1.0654936763071 0.28214913258854 1.9510731681857 0.93742525659103 0.338008620121 1.7290531215708 1.3178379332514 1.6053463932023 1.7024851696221 1.6742235032225 0.64103931509995 0.85536310095839 1.6699483571333 1.3722039807167 1.6505037567607 1.1324703966862 1.5044525707579 0.84813753464326 1.0470221391187 0.88917233120531 1.5042073957867 1.2313851868897 0.67879148461819 1.8778833494188 1.6495958736857 -0.55719600760866 0.12405850104746 0.88938027086052 1.6777370786256 1.8822273679893 1.5538728556795 1.8415304001436 1.1770153623547 1.4575349523897 0.61146782159104 1.6699941339504 0.38384054380963 1.9737238085072 1.1159453068396 1.5908098572614 0.89129815705865 1.6093193800374 1.47130583734 1.3396670565427 1.4095663852424 0.40047768070964 1.8258953508715 1.1478958604378 1.485008937495 0.46747296262027 1.4782481682039 1.5830037920523 0.9536084348433 1.3652649557035 0.89286285569028 1.6820237155035 1.1045331377427 1.453644868606 1.3650571794843 1.2608143167071 1.8560288423116 0.73616464006703 0.42646271759152 -0.50386217673816 1.782073808806 1.1313386698478 1.0446377164054 0.7603216182224 1.8253865806521 -0.2063419632451 1.6180873314172 1.5889280604382 1.1050729316691 1.0395815461504 1.7692654732222 1.8689192257414 1.4623274616531 1.5377521671145 1.7840406515874 1.6910952492912 1.8529845299731 0.73143876462141 1.5950485564199 1.8329778379014 2.0258698529041 0.73099510172003 1.4386330514653 1.3900404529072 1.4606999987422 1.5997668407182 1.6115293873138 0.6352623727736 1.7193125179229 0.73049064596224 1.1356822743312 1.463706660562 1.9253625148267 1.1685448512214 1.4003628487325 0.13441383531232 1.6797858363324 1.6519688180101 1.1807166996823 0.27130230938369 1.3886177594076 0.72342959899439 1.6585058369467 1.2133802914699 1.4761270664619 -0.32214348603158 1.5207895626587 0.69141105987784 0.77329279193243 1.8436442763226 1.2648305510892 1.3530311547823 1.5300903312082 0.48054538253463 1.8604907273686 1.78672751024 1.514138462435 1.8211348946138 0.65770875644591 1.6680975663451 1.6995107460447 1.5253730310502 1.0457806639902 1.7952429613727 0.50193678611958 1.2670831269861 1.3817745766806 1.1814403384887 0.79890817495269 1.7574695933032 1.5455904447872 1.3782065687381 1.3731452418627 0.71130480081999 1.3823492101059 -0.41886443333831 1.5904235540754 1.002062934991 -0.2513763663516 0.2534660716589 1.5285408835319 1.8099880030453 1.3528741907485 1.372640275897 1.8871653911497 1.5329455430866 1.0802315774198 1.6121832367505 0.92040524223767 1.2035191050803 1.4859091307337 0.96452999880555 0.35773311120218 1.6796648516185 1.4358834530891 1.8417049152502 0.7710220420062 1.6745510534232 1.5360872326498 1.4668715665803 1.5614278358762 1.5622682877033 0.21313472502541 1.0266240165264 1.4266414465825 1.041931054735 1.2279648174506 1.135129627933 1.7703666371899 1.0680903527472 1.2512727433125 1.4650422039341 1.8088298546878 1.7414078652334 1.736013945921 0.64506187763564 1.8654681725727 1.4645205710371 0.76684715399365 1.1824619023372 1.4870372991834 1.6567544380101 1.1184329036518 0.83758147155702 1.4317359368339 1.6066836141789 1.9250788340055 1.4250545956112 1.2998536955729 0.80944223786314 1.4063244216045 1.5718105811668 1.5818527660508 1.8138003295621 1.4300099892706 1.5986102492144 1.1458885637365 1.5321350645956 1.5958095583405 0.8277988251382 1.8978723197396 1.3887630007975 0.5824044236483 1.5870720383221 0.89955035875508 1.5222182336647 1.227820743203 1.7215312046248 1.1996616871533 1.2137569704012 1.5528293529805 1.1498553704317 1.6599917835084 1.8455793949042 1.3099639848261 1.6440216964717 1.4428409344823 0.47318849642472 1.1321832562506 1.7856310203834 1.7355200473044 0.2466644201912 1.5935200183688 -0.5571821617332 1.3949201305999 1.722865543275 1.2941481746789 0.64283746772523 1.7560379127175 -0.68152179259526 1.7605552118773 1.3186387349862 1.4204854690206 0.7356430480498 1.1606326015169 1.3792952818291 1.0540802118188 1.477138859272 1.0710906313868 1.783080724515 0.76967870223091 1.4236441246521 1.5007802511774 1.2360013951672 1.3376944993733 1.587676954423 1.5853061674938 1.447888737586 1.1031785618365 0.61992133508092 0.75072870087802 0.66020828660711 1.5157540178929 1.5691305057779 1.5818634445246 1.0596800704488 1.6666644335357 1.6069181248761 1.1542468504998 1.5815716819228 1.4139368018209 1.6028155215303 0.51133705203085 0.9582757483691 1.5992799432602 1.2590035956763 0.94036018970981 1.3294674549242 1.3482553411699 1.0508799163404 1.2663824021523 1.5389100464949 1.5227374414031 1.2043475462116 1.845669270189 1.806250211994 1.0852162158631 1.5477670979125 0.71931284581471 1.3420913216238 0.66699320179158 1.6280345361402 -0.20584082168505 0.72889155494028 1.5352407920657 -0.25765359587619 1.6821285129201 0.71063916043373 1.2883376824818 1.3166236921436 1.4283803618613 0.81087938590632 1.4012936990938 0.48447128895111 1.2419277651067 1.56439670474 1.2595959605739 1.5628873100057 1.5437061100494 0.98892801042757 0.82642322435486 0.51681975547523 0.77803808308689 0.61806118970773 1.8413712934855 0.44119346189366 0.91241581532588 1.5229723443867 1.2656731763588 1.5909559935858 1.7945532770791 1.6346482299676 1.6205737923301 1.2404136713529 1.3959299943115 1.5067281213382 1.5271285577681 1.6808001549519 0.55394559609729 1.5751373711965 1.5755966181213 1.1670155794718 1.1588374149902 1.6497599295081 1.9309571520257 1.5873224505058 1.7205537530062 0.66699528599992 1.2349364178704 1.7904366447729 1.6161002699945 1.3027316405125 1.7198166550145 1.0329945356339 1.3681662397007 0.43290346008986 1.6940530067864 1.3012143761663 0.69333157378658 1.4275915660889 1.5258002099219 1.4152579337905 -0.15120919313133 1.2686379350206 1.5725142696676 1.8898950679412 0.32907457272011 1.768175582736 0.84261021913597 0.2106917812297 1.204172236697 -0.43702044106472 1.7124553309029 1.9061370408137 1.42529427921 0.99371062393022 1.5158326998541 1.7830759028047 0.40979791233041 1.571713246366 1.4939434486806 0.20969492728067 1.4678971701767 1.3447822104446 1.635883446454 0.94685964374113 0.52420322834279 1.4231815193267 0.63705575035416 1.2517062713481 1.8746627040263 1.3496693956191 1.4822764211494 1.3483386261325 1.6284846037899 0.34867518909272 0.40216813674381 0.97330551546373 2.0217421273107 1.1312734061779 0.61375013398449 1.5041264831699 1.5709048680684 1.0534892198273 1.3564803504763 1.2328522896574 1.3695410693812 1.5892415981434 1.4707314447636 0.74134088998402 1.2683254673568 1.3301732387483 1.6275065843286 1.8937965009492 0.60541074865115 0.97310437464783 0.49782428440119 1.5068698337412 1.3123834931591 0.81973064325598 0.98192897027497 1.6857016313681 0.51390913131312 1.181035375931 1.0594337788548 1.2775522635479 1.7482548289729 1.2396800859824 1.1547219745157 1.7847623322744 1.8869895297226 1.5467729081631 1.7356251724634 1.6219901558433 1.2399187194115 0.78154701973583 0.75269896936881 1.4761932839309 1.0602720846927 1.1754797554991 1.4895248407746 0.76003777545601 1.6586298850669 -0.14847752202322 1.7934890564909 1.5990651408089 1.3462256853342 0.56308142478816 0.67433113919052 1.7707490069137 -0.027639001478599 1.149882234166 1.368825228339 0.59807359052894 1.1414769608578 1.9001317083199 1.7735014794457 1.5219624375861 0.66342721549564 1.7305189326072 1.6727358156689 0.34335255119975 0.92278159358516 1.6415801968165 1.0087955996965 1.535953525315 1.5307994800417 0.93159233881386 1.3686218699727 1.2400515968302 0.75425131966334 0.63781191003035 0.6350815961362 1.7338958866273 1.8463981871683 2.4645872459994 1.5640227188555 0.90096889623086 1.6074744907983 1.4533712368449 0.95386194367655 1.491290525799 1.6993148498209 0.50742043346387 1.7490407189189 0.8844644435312 1.7394508695956 1.569559510649 0.74652190511399 1.2033690089205 1.5072804425235 1.3971186085416 1.2305338684702 0.89777572100645 1.6391707830386 1.8123546565883 0.84617126161655 1.6980126561731 1.7507089329412 0.4894692024908 1.9654336548585 1.4072189930119 1.1789901052508 1.1230812051054 1.1034575509698 1.584812842141 1.4617172154399 1.7057498221688 0.92307856394007 1.7604415145858 1.3623071456675 1.429540768818 1.3210231247993 1.0348419234398 0.65826738610402 1.8887851002084 1.8492902742744 1.4179010992427 1.9182353795217 1.0550570562896 1.0319406985192 1.5069746124505 1.4935871586535 1.3488871982492 1.35150165805 1.5001725522145 1.0468428942885 1.8151425514346 1.8491031825835 1.396176865624 1.0616977003095 0.7947666070032 1.399146553584 1.2436180626544 0.31472611613052 1.5511841774469 1.7047879556094 1.2769625738322 1.8242407559206 1.32860277011 1.0777670796145 1.8868839784722 1.5391705878822 0.72959130683905 0.72433096668655 1.2824093557737 1.7901997622628 1.1754632144419 1.0534532652497 1.5907472863576 1.3044829825589 1.7136814775677 1.6050413581163 1.2166887891313 1.3746352214175 1.7778480573589 0.89242736122611 1.5660251681199 1.6410402493975 1.871667447419 1.4849856254769 1.2711784885175 1.7734191084116 1.7550880883574 1.8009984798701 1.5020487094564 1.4494467075595 1.4868493284068 1.6012459983727 1.476844817104 0.93351336429899 0.04263177253537 0.87634732719101 0.78854136549903 0.79072617523457 1.5521539035089 1.2656261948444 1.751992104883 1.2291996007572 1.5258334736588 1.2721124080474 0.61099154855957 1.7659773039762 1.5424266454659 1.6218223932851 -0.3683477014215 1.850581522864 1.6076139425195 1.0340824721682 1.8593369262505 1.1807679548479 1.1827338041339 1.9140925046607 1.2856791176291 0.61119300691256 1.4441323336209 1.1890811123332 1.0964002444902 1.789140038334 0.94495844790693 1.6506818154345 1.3225963988272 1.3221261362833 1.0208593151564 1.7614496425068 0.25259652783954 0.68543879952016 -0.50445472625291 1.3853548753864 1.4396311598439 0.78828935755572 1.0557984721952 1.5698241956596 1.7558613096477 1.4131214003968 1.613263862112 0.87931411460784 0.89973303452981 1.8393527447631 1.753595705546 1.4889389735272 1.5946236389623 1.4754351829542 1.4153630416028 0.58998589751321 1.3788180713181 1.6670050800878 -0.15006828311415 1.353771560326 1.882053811341 1.423125391832 1.417567976448 1.2401087792485 0.88269969493362 0.47017344720022 1.5235896234508 0.80238697662073 1.3510478832744 1.4036775109766 1.5470648206978 1.6183529681116 1.7647192787298 1.7846185527831 0.32449237125292 1.4673050467678 1.1088606952092 0.42990927417139 1.8119565474379 -0.46067007947701 0.57350775241027 1.2874278697662 1.6561434179214 0.98671883734585 1.4891156215827 0.56898925459528 1.4149788004075 1.0296889011669 1.3115148930865 0.96483769482369 1.0248242897936 1.8984590511358 1.4786131590671 0.72608337016834 -0.068426784942354 1.0726492487509 1.3207542855539 1.5546715004722 1.4531711613276 0.96071438953475 1.838225678451 1.3405763422707 1.5036676284233 1.4378820701951 0.75140406730064 1.5655649980414 1.5287157657566 1.948509597997