# vtk DataFile Version 3.0
d-2__ created by libgimli-v1.5.0-1-g5991b6ac
ASCII
DATASET UNSTRUCTURED_GRID
POINTS 803 double
8.3333333333333	0	0
8.5	-0.29429712828708	0
8.6666666666667	0	0
21.166666666667	-0.35154628884587	0
21.333333333333	0	0
21	0	0
-0.13949540192174	-0.65832226163824	0
0.26765699968102	-1.1941152153012	0
0.50098922076846	-0.451860121227	0
11.833333333333	-0.28867513459481	0
11.666666666667	-0.84084908820295	0
12	-0.57735026571174	0
-1	0	0
-0.82347194173878	-1.6006755924119	0
21.666666666667	0	0
21.5	-0.55217395360815	0
1.1666666666667	-0.35154628884586	0
1.3333333333333	0	0
1	0	0
1.5	-0.55217395360814	0
23.61842901153	-0.60378553647188	0
24.166666666667	-0.55217395360814	0
23.833333333333	-0.35154628884586	0
1.6666666666667	0	0
8.1666666666667	-0.35154628884586	0
1.8333333333333	-0.35154628884586	0
2	0	0
4.8333333333333	-0.35154628884586	0
5.1666666666667	-0.55217395360814	0
5	0	0
2.6666666666667	0	0
2.3333333333333	0	0
2.5	-0.35154628884586	0
2.1666666666667	-0.29429712828708	0
8.4079889429861	-0.75760412093209	0
9.0144333430414	-1.1439190584088	0
8.8333333333333	-0.55217395360814	0
13	0	0
13.166666666667	-0.29429712828707	0
13.333333333333	0	0
3.1666666666667	-0.35154628884586	0
3.5	-0.55217395360814	0
3.3333333333333	0	0
16	0	0
16.166666666667	-0.29429712828708	0
16.333333333333	0	0
3.6666666666667	0	0
3.8333333333333	-0.29429712828707	0
4	0	0
4.3333333333333	0	0
4.1666666666667	-0.35154628884586	0
27	0	0
26.833333333333	-0.35154628884586	0
27.166666666667	-0.55217395360814	0
3	0	0
16.5	-0.35154628884586	0
16.666666666667	0	0
2.8333333333333	-0.55217395360814	0
13.5	-0.35154628884586	0
13.666666666667	0	0
4.5	-0.55217395360814	0
4.6666666666667	0	0
3.9253443903472	-0.75760412093208	0
29.833333333333	-0.29429712828707	0
30.166666666667	-0.35154628884587	0
30	0	0
35.905165514021	-0.87509566217462	0
36.166666666667	-0.35154628884586	0
35.661339523067	-0.61041034021497	0
5.5	-0.29429712828708	0
5.8333333333333	-0.35154628884586	0
5.6666666666667	0	0
5.3333333333333	0	0
27.333333333333	0	0
27.5	-0.35154628884586	0
35.833333333333	-0.29429712828708	0
6.1666666666667	-0.55217395360814	0
6.3333333333333	0	0
6	0	0
37	0	0
37.166666666667	-0.35154628884586	0
37.333333333333	0	0
10.741322276319	-0.75760412093209	0
11.175685896383	-1.113902458684	0
11.166666666667	-0.55217395360814	0
6.5	-0.35154628884586	0
30.795730030397	-1.0103532830333	0
31.229185900173	-0.87228466782526	0
31.000045632922	-0.57199295442671	0
31.666666666667	0	0
31.833333333333	-0.55217395360814	0
32	0	0
40	0	0
40.166666666667	-0.35154628884586	0
40.333333333333	0	0
6.8333333333333	-0.29429712828708	0
7.1666666666667	-0.28872883340808	0
7	0	0
7.2211097499487	-1.0538354750778	0
7.0053271435993	-0.61041034021496	0
6.7615011526461	-0.87509566217461	0
9.5	-0.29429712828707	0
9.3333333333333	0	0
9.1666666666667	-0.28872883340808	0
7.3333333333333	0	0
39.666666666667	0	0
39.833333333333	-0.29429712828708	0
13.674580112811	-1.7184248716052	0
14.353791495618	-2.0265268011931	0
13.958469529133	-1.3940906823913	0
7.6666666666667	0	0
7.8333333333333	-0.55217395360814	0
8	0	0
12.994672856401	-0.61041034021496	0
5.5920110570139	-0.75760412093209	0
5.8348685364776	-1.5356869134354	0
9.8333333333333	-0.35154628884586	0
9.5718321806872	-0.87509566217461	0
10.166666666667	-0.55217395360814	0
7.33337923226	-0.57364431858631	0
10.36828810089	-1.6552861219901	0
6.6666666666667	0	0
36.666666666667	0	0
36.833333333333	-0.29429712828708	0
37.5	-0.55217395360814	0
24.333333333333	0	0
24	0	0
12.503171480364	-0.86507900392268	0
12.328351644367	-1.416191408927	0
12.778890250051	-1.0538354750778	0
11.5	-0.28867513459481	0
19.666666666667	0	0
19.833333333333	-0.35154628884586	0
20	0	0
9.6666666666667	0	0
20.5	-0.28872883340808	0
20.666666666667	0	0
20.333333333333	0	0
20.905165514021	-0.87509566217461	0
10.5	-0.35154628884586	0
10.333333333333	0	0
9.3280061897341	-0.61041034021496	0
10.833333333333	-0.29429712828707	0
10.666666666667	0	0
22.833333333333	-0.55217395360814	0
22.5	-0.72876886968591	0
22.915493514149	-1.1101467813362	0
5.2020787936337	-1.0219070688786	0
18.833333333333	-0.29429712828707	0
18.925344390347	-0.75760412093207	0
19.166666666667	-0.35154628884587	0
22.666666666667	0	0
22.5	-0.35154628884586	0
13.833333333333	-0.55217395360814	0
14	0	0
16.833333333333	-0.55217395360814	0
0	0	0
14.166666666667	-0.35154628884586	0
14.333333333333	0	0
14.5	-0.55217395360814	0
14.833333333333	-0.35154628884586	0
14.666666666667	0	0
15	0	0
15.166666666667	-0.55217395360814	0
15.333333333333	0	0
2.0948344859795	-0.87509566217461	0
2.2850956781966	-0.60378553647187	0
12	0	0
11.666666666667	0	0
22.166666666667	-0.95506458788032	0
22.166666666667	-0.55217395360814	0
21.833333333333	-0.7287688696859	0
15.5	-0.35154628884586	0
15.666666666667	0	0
17	0	0
20.833333333333	-0.29429712828707	0
20.661339523067	-0.61041034021495	0
9	0	0
14.166666666667	-0.72876886968591	0
17.333333333333	0	0
17.166666666667	-0.35154628884586	0
18	0	0
17.666666666667	0	0
17.833333333333	-0.55217395360814	0
17.5	-0.29429712828708	0
16.258677723681	-0.75760412093209	0
12.833333333333	-0.28872883340808	0
18.166666666667	-0.35154628884586	0
18.333333333333	0	0
17.407988942986	-0.7576041209321	0
19	0	0
19.333333333333	0	0
18.666666666667	0	0
12.166666666667	-0.28867513459481	0
12.333333333333	0	0
15.833333333333	-0.55217395360814	0
20.166666666667	-0.55217395360814	0
19.5	-0.55217395360815	0
7.5	-0.28867513958836	0
23.5	-0.29429712828708	0
21.833333333333	-0.35154628884586	0
22	0	0
26.592011057014	-0.7576041209321	0
22.333333333333	0	0
23.934922518609	-1.0280995368212	0
25.166666666667	-0.35154628884587	0
25.5	-0.55217395360815	0
25.333333333333	0	0
23.166666666667	-0.35154628884586	0
23	0	0
26.666666666667	0	0
26.5	-0.29429712828708	0
23.666666666667	0	0
23.333333333333	0	0
26.166666666667	-0.55217395360814	0
26.333333333333	0	0
26	0	0
24.761501152646	-0.87509566217461	0
24.951762344863	-0.60378553647187	0
24.5	-0.35154628884586	0
33.5	-0.35154628884586	0
33.238498847354	-0.8750956621746	0
33.833333333333	-0.55217395360815	0
24.666666666667	0	0
28.166666666667	-0.35154628884587	0
28.5	-0.55217395360815	0
28.333333333333	0	0
25	0	0
24.833333333333	-0.29429712828707	0
27.761501152646	-0.87509566217461	0
27.951762344863	-0.60378553647187	0
29.333333333333	0	0
29	0	0
29.166666666667	-0.55217395360814	0
25.833333333333	-0.35154628884586	0
29.947484315848	-0.62869436758688	0
30.409983486194	-0.76921735210505	0
34.166666666667	-0.72876886968591	0
34.166666666667	-0.35154628884586	0
25.666666666667	0	0
35.445556916718	-1.0538354750779	0
35.333287434407	-0.57364431858632	0
29.666666666667	0	0
29.5	-0.28872883340808	0
26.834868536478	-1.5356869134355	0
30.833333333333	-0.28872883340808	0
30.671365010853	-0.57276869068256	0
27.666666666667	0	0
38.204670056311	-1.4270134762662	0
38.601589185276	-1.0280995368212	0
38.094834485979	-0.87509566217463	0
28	0	0
27.833333333333	-0.29429712828707	0
36.662074300781	-0.56642454030296	0
28.666666666667	0	0
31.746636025369	-1.1187108767801	0
28.833333333333	-0.35154628884586	0
33	0	0
33.166666666667	-0.29429712828707	0
33.333333333333	0	0
34.5	-0.55217395360814	0
34.731644951192	-0.92970615345739	0
35.666666666667	0	0
35.5	-0.28872883340809	0
30.333333333333	0	0
31	0	0
31.166666666667	-0.28867513958836	0
31.333333333333	0	0
38.285095678197	-0.60378553647188	0
37.833333333333	-0.35154628884586	0
30.666666666667	0	0
30.5	-0.29429712828708	0
36.5	-0.28872883340808	0
33.666666666667	0	0
36.41952417611	-0.77749898599357	0
38.5	-0.35154628884586	0
38.833333333333	-0.55217395360815	0
38.666666666667	0	0
29.657657699283	-0.83081436360664	0
40.168201869811	-1.5356869134355	0
40.5	-0.55217395360814	0
39.925344390347	-0.75760412093211	0
32.994672856401	-0.61041034021495	0
31.5	-0.35154628884586	0
43	0	0
42.666666666667	0	0
42.833333333333	-0.29429712828707	0
43.404176293252	-0.42323554094762	0
35.88498281448	-1.5034830799843	0
41.166666666667	-0.29429712828708	0
41.074655609653	-0.75760412093211	0
41.5	-0.55217395360814	0
41	0	0
41.333333333333	0	0
34.333333333333	0	0
32.166666666667	-0.35154628884586	0
32.333333333333	0	0
39.5	-0.55217395360814	0
39.333333333333	0	0
36.500673817427	-1.6307728168531	0
40.833333333333	-0.35154628884586	0
34.666666666667	0	0
35.333333333333	0	0
35.166666666667	-0.28867513958836	0
35	0	0
36.333333333333	0	0
36	0	0
12.333333329009	-0.57732068917697	0
37.666666666667	0	0
7.9035368819631	-1.2622568520387	0
28.737635378193	-1.2311528923644	0
29.212976838479	-1.0424777721347	0
28.833333333333	-0.7287688696859	0
12.66662076774	-0.57364431858631	0
38.166666666667	-0.29429712828707	0
38.333333333333	0	0
12.5	-0.28867513958836	0
39	0	0
39.166666666667	-0.35154628884586	0
20.347766676375	-1.1439190584087	0
19.833333333333	-0.7287688696859	0
40.666666666667	0	0
42.5	-0.35154628884586	0
10	0	0
18.5	-0.55217395360815	0
41.666666666667	0	0
23.428167819313	-0.87509566217462	0
42	0	0
42.166666666667	-0.29429712828707	0
42.333333333333	0	0
42.744785246826	-0.77776727251482	0
41.833333333333	-0.35154628884586	0
38	0	0
41.542494325991	-1.1832128457714	0
2.6015891852757	-1.0280995368212	0
13.258353909981	-1.6064355191183	0
4.8333333333333	-0.72876886968591	0
15.5	-0.7287688696859	0
15.8687454603	-1.0219070688786	0
16.501535203144	-1.5356869134354	0
14.833333333333	-0.72876886968591	0
12.666666666667	0	0
17.797921206366	-1.0219070688786	0
18.166666666667	-0.7287688696859	0
36.905165514021	-0.87509566217463	0
32.666666666667	0	0
32.5	-0.55217395360814	0
34.833333333333	-0.28867513459481	0
34.999999995676	-0.57732068917696	0
34	0	0
35.169838147031	-0.8650790039227	0
42.285095678197	-0.60378553647188	0
41.877780449001	-0.80261564071807	0
13.238498847354	-0.87509566217461	0
11.333333333333	0	0
11.697267761921	-1.4738194081615	0
12.166692603518	-0.86967323340335	0
3.1666666666667	-0.72876886968591	0
11	0	0
18.535412126967	-1.0219070688787	0
25.833333333333	-0.7287688696859	0
25.268255851942	-1.0280995368211	0
28.268255851942	-1.0280995368211	0
[...]
CELL_DATA 1424
SCALARS Coverage double 1
LOOKUP_TABLE default
2.8540205154588 3.112924550506 2.0199200581318 2.5770694153926 1.7994434018658 2.9725402615421 2.8361200726818 2.3119152207561 2.7237734729946 2.6021947734562 2.8034538373586 2.4086120975286 2.8521552732226 2.643785927648 2.6840832669454 2.6067668995027 2.4643345768967 3.2438178616202 2.6102834187496 3.2344206146292 3.2853757932123 3.2548308563745 2.9226312483159 2.9716407408296 2.9432864259821 2.9522996361374 2.9433971156813 2.8641360786897 2.526940921677 2.921693387211 2.9934168955758 2.6396838673085 2.7548153619816 2.9694601064971 2.8691114943586 2.7271045080327 2.9739786615018 3.3241500185396 2.4805281162128 2.712092226237 2.6398001030337 3.0271811533631 3.1468957268479 3.2730737889568 2.8218082315062 2.452775321935 2.8496825265195 3.2866066528823 3.286620223903 2.1334296370899 2.9788604008086 3.0579835505282 2.6879907913573 2.3620158786983 2.7926008514443 2.6212355626318 2.498709860671 2.422930020879 2.8661396400533 2.9429465712345 3.3394599067187 2.8575015552166 3.1223903787299 2.3540172203524 2.5942512000126 3.0823147040537 2.9852615217101 2.8948020374226 2.6406400685711 2.7747952749838 2.9162393584479 2.7009573728032 2.8127365066945 2.5765915450748 2.4023173838259 2.7145702247001 2.8088082474274 2.7184189420944 2.4505493964021 3.0079027798912 2.7377018228729 2.5824100681731 2.7265378088097 3.0700950327375 2.5920344058746 2.7555680224054 3.0101930545147 2.8645903724724 2.8274376124647 2.3239294258431 2.7588238427205 2.419612619157 3.0623123914786 2.6194729979442 2.5019779845951 2.9357077279648 2.3513294270181 3.0210990050789 2.7162324786905 3.032516634256 2.6173250904298 3.0721289655614 2.6455073142028 3.0031755506616 2.8137887768748 2.6839155720418 2.7914045560652 2.7486152289066 2.8246924691475 3.0272968737295 2.6143816134604 3.2399788003524 3.2773664721581 3.0594956209545 2.6136644608841 2.8510102516984 3.1611676039825 2.7658969195217 3.1503570066726 2.8664017838688 2.7313143794398 2.8579494441027 2.9273373420312 2.7725340572831 2.6965226904661 3.0660791257602 2.7121095792527 2.8066841781565 2.9052975226232 2.7935295714388 3.327407941361 2.7198298559483 3.0340452283498 3.2738707203014 2.6212112367295 2.9106152947458 2.8606115032784 2.9390210001121 3.1940736537718 2.8911952853935 3.1686487263142 3.0998478621104 2.7103704478155 2.7080516381086 3.078796846273 2.9332804900075 3.4092350659241 2.9793737958456 2.7317510510895 3.1944059333253 2.8326050414047 2.7277259288 2.9917780231139 3.2168618418823 2.7800596548639 3.1873978898855 2.5728084064844 3.0466797333669 2.9627838762771 2.8213018508806 2.561111877197 2.8043182959676 3.0994350971199 2.3194493874871 3.4080908210084 2.986051099345 2.7442173405294 3.0696835010282 2.5999617657672 2.8485032447132 3.2226973796747 3.1659174793689 2.9027645565148 3.211317721348 2.6468954025749 2.9022674794954 2.6467333291224 3.1853781704167 3.219285609523 3.4139141285111 2.5919419569878 3.0952690691837 2.9636201079157 3.0971252978824 2.9742163791291 2.8775328366007 2.7044709889793 2.7538003875741 2.7160017936575 2.4094373238597 2.7669322679476 2.7314591802121 2.8642225536042 2.9293143095224 3.0869868482652 2.3035447488163 2.4296640717412 2.7789640563078 2.4740234507224 2.9932167484108 2.9280100902643 2.839432388294 3.1878944934679 2.9102401555529 2.3101954241274 2.5055671185899 2.6278271187743 3.0537684024434 2.7167144259876 2.9525132925596 3.2083227745789 2.9564693293684 2.6480016372074 3.1307136416687 2.6386753266315 2.9604157153724 2.77339388197 2.6765937357022 2.7475850941186 2.4376771791625 2.8583852117969 2.5607952018518 2.5357186321276 2.6474756300393 2.4877975731334 2.8230825476891 2.8277909771936 3.0858038302885 2.8753039938412 2.7315600690522 3.0566033815877 3.1150044945134 2.5243923562735 2.8679325286599 2.5192645321988 2.8696102670561 2.6978583676531 3.2415597429493 2.9125347947902 2.962814299832 2.8377677574406 2.6876746615014 2.7136431866752 2.8645852667285 2.6583444107425 2.983299076907 2.8515515941777 2.1524782913132 2.7101490821074 2.7471190616638 2.9506463225651 2.5933973530172 2.7017896341791 2.6208346824688 2.7634251602499 3.0864082998286 2.6406478307388 2.8979773266944 2.3038290538317 2.4696240628916 3.1539701633162 2.3158956527636 2.6370671499879 2.7845765717935 2.5768980860917 2.8041472809136 2.5264787803066 2.605518340429 2.7065125554625 2.2624112456165 2.5447458418989 2.6457772203975 2.5376754648543 2.5380076710805 2.4566154093414 2.6248759402085 2.7447945444133 2.7893328727579 2.6089383497277 2.6136844384051 2.7821951571176 3.242367953011 2.8847200613139 2.5077170610443 2.6456091469884 2.6217282298338 2.7372364918754 2.6803227343148 2.7602796357907 2.8352891613589 2.6671853637884 2.7785319432508 2.7922795533395 3.4264589967302 2.8528581796633 2.8919555189293 2.7299941778511 2.7980165708863 2.8218201362379 3.4227470364972 2.8644363793841 3.004895165549 2.7296963265646 2.5684730808604 2.9510405494775 2.7599902551095 2.8146106039283 3.4135754333931 2.9386124240429 2.9374229019643 2.9257303372863 3.3696461812903 2.6694905894048 2.7871162234255 2.5905540682738 2.3944207731436 2.8964616895488 2.597793882787 2.6855828933223 3.1018192484489 2.6990271744389 3.0299086885585 2.8057083406681 3.0075229863184 2.3025767478737 2.4038616654572 2.5724794557415 2.5512516633306 2.644813636619 2.7607291034986 2.5851643449765 2.4914942404744 2.5968478336599 2.8133749959935 2.7688102208775 2.9027204347729 2.36576448766 2.2561622340168 2.8573015530093 3.2872761301729 2.9705344615942 2.7936408369682 2.6394658044027 2.6581989732843 2.6138814629834 2.7387343101814 2.6511419693693 2.8458567540945 2.6770697926556 2.6576847518857 2.9067082411581 2.5503735808108 2.2815969336928 2.5806232980471 2.509755866202 2.3428179049903 2.6909387431414 2.6979138746212 2.4081842144523 2.9415609192622 2.618294415619 2.4786364626411 2.5416419496708 2.6342284554255 2.5489187114989 2.6257060890132 2.3965247604638 2.8459236336067 2.7455284710599 3.00759312876 2.6977436626887 2.6409313438202 2.6894237064202 2.8770193406851 2.7650455379163 3.0246512218671 2.7288827953368 2.9065240062923 2.889905011687 2.6587100066776 2.7344325178812 3.0360560234878 3.2258655065611 3.1624044226244 2.5846612193661 2.7675827154901 2.8081814600935 2.8665244697758 2.5411183590537 2.7281297111786 2.9060723972852 2.6983857403638 2.6104446890853 2.8100929184893 2.6143770595994 3.4242874096674 2.4822835901937 2.5503859204505 2.3734649282115 2.6103417916132 2.3017017963164 2.4587962874524 2.3212359345259 2.3703971795728 2.5470024901465 2.3360434857803 2.3135007049676 2.8845720591809 2.4572731356882 2.5187423204984 2.6041892085266 2.6644332370223 2.5441901416275 2.6320334102068 2.4963873299117 2.7044306998485 2.6706832381071 2.2799266394233 2.5163288479789 2.5472508894759 2.3878278401913 2.019714179242 2.5272640230583 2.5796212041242 2.7552365464348 2.6173999469408 2.7648969038701 2.6337192281938 2.2502163017415 2.7650340697186 2.5805138480948 2.7133147511681 2.5454233506692 2.8676713000843 2.5591581966817 2.8856426532404 2.582565261475 2.269061479365 2.2647660573322 2.6806635335151 2.6878131007092 2.7718970884483 2.548438419913 2.4176130704107 2.2194106369766 2.8105368817553 2.6209032381561 2.8333261853648 2.6375890365905 2.6827047207612 2.4421634656982 2.4673622020692 1.9171557865699 2.5477210219443 2.4142472510808 2.0529671147602 2.2149787974993 2.426266430084 2.4649848141911 2.4825408756237 2.540125654164 2.8960225155228 2.461623097213 2.2296485375129 1.9726130528551 2.1615970182301 2.6395406681465 2.4048850580845 2.4298204402375 2.1050186739641 2.66987428964 1.8463545920155 2.7286944789116 2.5167355500687 2.5370188197872 2.4907496546012 2.7534174591734 3.2918844213533 2.3904079572745 3.0789602649213 2.5126124125699 2.527312759226 2.5611866883042 2.6075155224787 2.382348040185 2.5969306317134 2.5147701123272 2.5385962998326 2.2616777103892 2.6354920734628 2.4773723012273 2.6600439910516 2.1123353518067 3.0852419762492 2.532720719055 2.4575215557367 2.3166234816149 2.4029711443147 2.525943690206 2.6278606190048 3.0179705928887 1.7832431024453 2.6884929672605 2.6158986284992 2.3550814901807 2.4624115456019 2.0659449868628 2.185594589675 2.5354263145615 2.2812754183497 1.9008000294332 2.4646719975267 2.3726271427956 2.8081093912673 2.1442819373626 2.3404840911898 2.3070352301411 2.3742382525794 2.0653256413478 2.1054718413828 2.489208218236 2.6540086607293 2.5013298322245 2.4536002190838 2.2903939244059 2.3341070199341 2.0214461987932 2.4713483701229 2.2265901582173 2.2297333685717 2.4926846667687 2.3962937947706 2.5771073152819 2.3688624805293 2.1775076143479 2.5202526576711 1.8724510923149 2.1873704473896 2.4318451075535 1.668155742309 2.2938494605266 2.2840580843036 2.5271472064059 2.3554348671341 1.8496211376668 2.5480290731916 2.5103589569463 2.5913288935461 2.6015309711573 2.4528683580477 2.3694215314621 2.4462653882126 2.4347809397396 2.4492210966662 2.1404924930271 2.0431022424678 2.6121843980883 2.5141863701801 2.3460044123545 2.4234622289223 2.3385458743602 2.6705349646141 2.3937033264966 2.2693285330606 2.2411478348921 2.274033055232 2.3905291183599 2.5429778768746 2.9650981972362 2.6112541391711 2.0418044436295 2.4871390340847 2.829679605871 2.0027783548408 2.4135249436539 2.4146495087314 2.3086209526465 2.3059689979913 2.6315495149808 3.0492613353634 2.4003106684876 2.3444483051716 2.3417818648663 2.3812764181849 2.6998608958949 2.4600512167698 2.1808827123969 2.1772326913497 1.7234002344974 2.1328335630546 2.20822654515 1.7249556126558 2.7572350917607 2.625788679347 2.3372091359201 2.2746488777325 2.6960152135569 2.6068224007837 2.0146773407636 1.3417083012788 2.2637533503834 2.3248968371587 2.1479487865535 2.829156668945 2.0599156661658 2.0441282527132 2.5290784133728 2.7309139447756 2.4388505099165 2.3272275620554 2.4148716915537 2.3489287459646 2.1883591493713 2.4675035578401 2.1773085096533 2.3439188804564 2.4908357050675 3.2064718737429 2.1718019508121 2.0286784112817 1.9781651511034 2.1938247010036 2.1439373202431 1.9884077236253 2.1960410454072 2.2614821129771 2.3076286230856 2.0781449050092 1.9942604598853 2.492129232124 2.4307821182642 2.5944806701268 2.306306389182 1.8647026256533 2.4119978383031 1.7313109049404 1.6463783196376 1.9105810590161 2.3403205409472 2.7050218778472 2.0003084817135 2.7031679617905 2.1446092014189 2.1574346352299 2.0197795958075 2.2664081247781 2.0291223561828 2.4992794968086 1.9319356948533 2.2847004544636 2.0912471594745 1.6995878091905 2.1313270167893 2.1738042361393 2.2726838698229 2.2276432215381 2.2910169936547 2.0918683763393 2.3824566820221 2.7478427284869 2.0699289955175 2.3066977259493 2.2066476345113 2.1644146170111 2.354207235776 2.1307092857659 2.1478484300046 2.6585964236282 2.4368234693633 2.1627021168409 2.851314144416 1.5870582395027 2.0278236466501 2.6869829063019 2.1252930199885 2.3162420952796 1.2983148344399 2.0756137679267 2.7440598409698 2.1870679365863 1.8347389230856 1.9601572287098 2.3089940688932 2.1248664154067 1.8906603063307 2.1365647937427 1.9548927712622 2.0895576787318 1.94307225019 2.3298109717623 2.0925863550849 1.8961836590758 2.1031841657041 2.0931702278034 2.1553613898146 2.0449070730026 2.0783604406167 2.8961238255023 1.9843038926779 2.167833332665 2.3341164052443 2.1716843173462 2.0263513393285 2.2269018053597 1.7901446454762 1.9681537460209 1.8590722640796 1.9313924221214 2.0801347885688 2.6943744263285 2.3211649416296 2.0187140836601 1.786335133361 2.3864828805237 2.0509148840339 1.3535624963417 1.8221163761463 0.64038838333596 0.81492384689082 2.0274465199774 1.9876040812824 1.868059919117 1.4484656459721 2.100867201717 0.92730400205298 2.4975243902866 2.6737980832186 1.978636490487 1.4864810314376 1.2702094806932 1.8816460133553 2.5046601796278 1.6543672875167 1.7947910149159 1.8680445429496 2.4489588280994 1.8441379096728 1.8980707437876 2.0277173095418 1.7090895249083 2.1656520976001 1.9371097950043 2.0926360351606 2.025800694472 2.0653935803493 1.8652043384329 1.6191485179757 1.9968797612607 2.2804372911479 1.611716043703 2.4661756818957 2.5940466920152 2.4485201792572 1.9115230584091 2.3106975459502 1.66336886451 1.5876606712156 1.7277584963576 1.6586794401003 1.8801533283219 2.1308208412029 2.1698495443695 2.8718812452594 1.7437764339338 1.7304256730258 1.5909733822724 1.6613146515911 2.3934524997236 1.9776136902148 1.7965793413947 1.9858615580716 1.7662317414296 1.4337708360761 1.4113319935595 1.9983272790457 1.6259090388366 1.5424596464143 1.6138430488241 1.8630474166805 2.2521442117268 1.3112544712708 1.9019878749485 1.1914177803558 1.443747573226 1.6100716701969 1.9673774589912 1.7148603019312 2.2395684937071 2.0698480048934 2.0490780880327 2.1430230683877 1.7356559934527 1.908252061386 1.894259643093 1.7559146936222 1.8875193270632 1.9746583444522 1.5541375111186 2.0509964469616 1.806775900346 1.7101378695583 1.8473402803119 1.9015155774283 1.9022360211711 1.2196801402229 2.0360210282259 1.7141041078948 1.8053330082988 1.5107894500845 1.8342002291017 1.5576923583782 1.5182065468507 1.7066217684033 1.7419119358924 1.552224204121 1.7484668631713 1.6386598385448 1.3841392296493 1.5137464514031 1.59263708027 1.2525204684093 1.7381960120079 1.3504864926077 1.7678540325379 1.580470770333 1.6294513043264 1.326351980005 1.40924534275 0.97480572746356 1.2393011296492 1.4251344028286 1.3456949283838 1.2497319124398 1.5527258189184 1.4537102258945 1.6215635862547 1.1619968778277 1.7807644596071 1.9451925682095 2.0821149586053 1.7258048257098 1.5030823902476 1.561991201644 1.657191124787 1.4953215669083 1.3927754281871 1.9189751254151 1.0113886861914 1.5405947456594 1.6060327901652 1.8252621837237 1.7353406796414 1.6212541448589 1.5139476490257 1.4882900973358 1.278926233362 1.1600271415599 1.3239576188678 1.5157282439076 1.3903569035444 1.5230865803358 1.1859398884923 1.8252761537054 1.4692964573521 1.7458675443861 1.8164936605682 1.3869257761378 1.3720290465538 1.6546465987089 1.6626272518357 1.3467687292327 1.4752466245732 1.3946453889226 1.5266468338012 1.335615860896 0.82225606992734 1.293994348991 1.5881925872565 1.3167192766867 1.0959337286531 1.5195487952412 1.3746259797671 1.3107664829763 1.2062527215798 1.5230631634819 1.1121922657401 1.2557843626785 1.28057117772 1.2818262127781 1.0976993260337 1.2080379824137 0.75585607958226 0.95885892435032 1.0964569781277 0.9549461895482 1.317502677977 1.3880872946665 1.284357051146 1.0404526756524 0.80658042410482 1.1059058478798 1.1427477342647 1.6576074323184 1.2886086038367 1.1505631830406 1.0333411027093 1.2196911294418 1.0633350735061 1.2819957784692 0.50179208014312 1.1630267849475 1.5452962893017 0.9666598355454 1.1554193063567 0.78008136493677 0.8444187505939 1.0672624651359 1.2910310944551 0.94461842037368 0.98758703197516 0.98590761387545 0.68937432078908 0.97507491804449 0.52196065122189 0.44827153198372 0.50637277533759 0.65656133797312 0.83699896779696 0.88565186181328 0.87591414297465 0.77382158472248 0.822157440667 0.90340817231435 0.90730659727944 0.42739537844776 0.78117211143639 0.9658299156073 1.6544017801219 1.7070381115492 1.2213958834861 1.4083448750281 1.1405225041733 1.2573804713381 1.2191037735113 0.7129059430785 0.81827689376554 0.67273554233273 0.68598173557579 0.69991662196665 0.80507624019006 1.0851780162808 0.71408480941259 0.65116105699561 0.7770640486023 0.87111912355734 0.58239572922681 0.55756751610598 0.79831663849033 1.4452147323588 0.81767443209332 1.4268346434423 1.2071825042348 1.4846688041152 1.5723258764116 1.4491563616963 1.4073786701305 1.2130241093728 1.3280789012161 1.3276374659845 0.87140622763223 0.72013257009774 0.53737109146444 0.44814334103873 0.43907191917523 0.9214716290723 1.167540423217 1.1095400370274 1.4161457147089 0.83703387146937 0.92635042342583 1.0235692999151 1.357603803227 1.0667161643541 1.3093671848577 1.160834856064 0.97727419300491 0.83413195666324 0.7503779831675 0.57144690813553 0.79530308995897 0.46435319509947 1.1009372273239 1.1100421007924 1.5100710932517 1.21541713519 1.3187604260959 1.2990032331879 1.5535522853143 1.1084867168713 1.0396536680172 0.66383445965123 1.0021748379318 0.93725849460151 1.0055531001012 0.97735944101437 1.1492209687022 0.54140617315408 0.64806989089923 0.72947815633941 0.58854770642599 0.84698090288128 0.50935009246872 0.60194085949526 0.87475079339287 0.9674034956836 1.110235827395 0.72048298998392 1.222065698213 0.80116761252736 1.4058109845915 1.0473803254282 0.81567955230412 1.1878121970654 0.9855158359551 1.1360921163955 1.0831618012554 0.50610022917136 0.41220897095955 1.0715274450108 0.72736210253357 0.79498966364854 0.6781943823943 0.71905458722156 1.1798921053394 0.56114095949457 0.71606460826611 0.89829036041644 0.77067191705902 1.0342918116982 0.95737282544619 0.64332770778801 0.53196347212665 1.1762934499733 1.101718987129 1.2492444132454 0.93675912609747 0.99070294390554 1.0873850409192 1.0095816906161 0.8332220205137 0.90776011719515 1.0206192144121 0.62872319811497 0.44366435544607 0.88068967821016 0.57142060968483 0.83633839286614 0.84721844922562 0.39009112012118 0.50519066816084 0.55311725586924 0.62798323302468 0.9186200969042 1.0243507409045 0.82811474803854 0.5145942892489 0.93055251540803 0.50009333284767 0.49326750059846 1.1101423732286 0.58860297246091 1.4155570654846 1.2400608885417 0.79129467130856 0.84411021314832 0.56952223934306 1.2124130986213 0.68858255573319 0.62836663341795 1.7185236118084 1.380281646194 0.66990114045981 0.82391872933087 0.7609363249069 0.55834807002773 0.51385196532 0.56118502970772 0.46850226016571 0.61115907642795 0.46463944450364 0.53009913605224 0.58957424097706 0.79061274708022 0.65708080738322 0.58901280436871 0.46798014728866 0.72134325173041 0.50996194032915 1.6948550416958 1.3615966609592 1.2019268382945 1.0861836319367 0.53062329494402 0.58467918825483 0.66716743593443 0.50090856028207 0.48731393783678 0.64462462095306 1.0184870186635 0.78736922600775 0.75070725975413 0.62956218520431 0.47114661301966 1.2111151330479 0.89127257209268 0.6242509225861 0.48615379712767 0.67212247248591 0.53012768212588 0.56024547457581 0.47558472423075 0.49974793578204 0.64288772192469 0.79476210268641 1.1962794102124 0.70382348540741 0.65204349644856 0.74865870074188 0.85297238162851 0.78041929500517 0.47071428241046 0.7088572434979 0.85544740607984 0.92012565330317 0.96139527403526 1.0319137527576 0.97385379675637 0.87118899426088 0.80775618070007 0.93212160297472 0.68795494585185 0.72349618503913 0.65710030762183 0.91363278935628 0.51169078230125 1.1728416814371 0.86722638743098 1.3289484771044 1.1820986338728 0.78292482424675 0.73971003143974 0.77827857498289 0.60874098964361 0.70457355771618 0.47174263163267 0.944133008383 0.70373075514851 0.80456184336153 0.93897239435976 0.85037952946209 1.1908377023269 0.7217035874317 0.76217649173979 0.84711212410205 0.82047580250854 0.70395139991201 0.53135571669556 0.59805573897635 0.96550853203857 0.75835466244796 1.007934700271 1.0994656360876 1.0948073285885 1.507641520825 0.47131845966638 0.62107989039992 0.97006483710669 1.1156594289908 1.6044142310702 1.4696884059735 0.88944644698045 0.77231395098243 1.8007957716911 1.6269692324819 1.3556273835188 1.5039979203664 1.319409375141 0.7547940853727 1.5823866638541 1.3278221418146 1.1869085922252 1.2714558874677 1.1306835324125 0.86980121026472 0.94762488256591 1.1096170218613 0.94144306638314 0.94606262422008 0.87316464557769 1.2506690371899 1.5135939405846 2.0595910100161 1.7578824688621 1.4900578635136 1.2627827668196 1.1420658931921 0.75167351149909 1.251678827231 1.0488943904623 1.3342027609292 1.0408441117775 1.036867162727 0.881033247918 1.2010642857547 0.83727038114868 0.80029526221523 1.1344168570014 2.0178645419882 1.8879399007287 2.0092435700739 1.6326390545526 1.0958527865533 1.3440146339744 1.4847880597171 1.4122979749522 1.3581244949087 1.3120193613213 1.3205888207325 1.4594063863635 1.1834475925751 0.98232890097531 1.8629029313134 1.6740761880742 0.73113491774903 0.43601674526824 0.59514505280767 0.50309066708961 1.2548805791513 1.4923399814009 0.55044395988832 0.46993640719705 0.55