# vtk DataFile Version 3.0
d-2__ created by libgimli-v1.5.0-1-g5991b6ac
ASCII
DATASET UNSTRUCTURED_GRID
POINTS 803 double
8.3333333333333	0	0
8.5	-0.29429712828708	0
8.6666666666667	0	0
21.166666666667	-0.35154628884587	0
21.333333333333	0	0
21	0	0
-0.13949540192174	-0.65832226163824	0
0.26765699968102	-1.1941152153012	0
0.50098922076846	-0.451860121227	0
11.833333333333	-0.28867513459481	0
11.666666666667	-0.84084908820295	0
12	-0.57735026571174	0
-1	0	0
-0.82347194173878	-1.6006755924119	0
21.666666666667	0	0
21.5	-0.55217395360815	0
1.1666666666667	-0.35154628884586	0
1.3333333333333	0	0
1	0	0
1.5	-0.55217395360814	0
23.61842901153	-0.60378553647188	0
24.166666666667	-0.55217395360814	0
23.833333333333	-0.35154628884586	0
1.6666666666667	0	0
8.1666666666667	-0.35154628884586	0
1.8333333333333	-0.35154628884586	0
2	0	0
4.8333333333333	-0.35154628884586	0
5.1666666666667	-0.55217395360814	0
5	0	0
2.6666666666667	0	0
2.3333333333333	0	0
2.5	-0.35154628884586	0
2.1666666666667	-0.29429712828708	0
8.4079889429861	-0.75760412093209	0
9.0144333430414	-1.1439190584088	0
8.8333333333333	-0.55217395360814	0
13	0	0
13.166666666667	-0.29429712828707	0
13.333333333333	0	0
3.1666666666667	-0.35154628884586	0
3.5	-0.55217395360814	0
3.3333333333333	0	0
16	0	0
16.166666666667	-0.29429712828708	0
16.333333333333	0	0
3.6666666666667	0	0
3.8333333333333	-0.29429712828707	0
4	0	0
4.3333333333333	0	0
4.1666666666667	-0.35154628884586	0
27	0	0
26.833333333333	-0.35154628884586	0
27.166666666667	-0.55217395360814	0
3	0	0
16.5	-0.35154628884586	0
16.666666666667	0	0
2.8333333333333	-0.55217395360814	0
13.5	-0.35154628884586	0
13.666666666667	0	0
4.5	-0.55217395360814	0
4.6666666666667	0	0
3.9253443903472	-0.75760412093208	0
29.833333333333	-0.29429712828707	0
30.166666666667	-0.35154628884587	0
30	0	0
35.905165514021	-0.87509566217462	0
36.166666666667	-0.35154628884586	0
35.661339523067	-0.61041034021497	0
5.5	-0.29429712828708	0
5.8333333333333	-0.35154628884586	0
5.6666666666667	0	0
5.3333333333333	0	0
27.333333333333	0	0
27.5	-0.35154628884586	0
35.833333333333	-0.29429712828708	0
6.1666666666667	-0.55217395360814	0
6.3333333333333	0	0
6	0	0
37	0	0
37.166666666667	-0.35154628884586	0
37.333333333333	0	0
10.741322276319	-0.75760412093209	0
11.175685896383	-1.113902458684	0
11.166666666667	-0.55217395360814	0
6.5	-0.35154628884586	0
30.795730030397	-1.0103532830333	0
31.229185900173	-0.87228466782526	0
31.000045632922	-0.57199295442671	0
31.666666666667	0	0
31.833333333333	-0.55217395360814	0
32	0	0
40	0	0
40.166666666667	-0.35154628884586	0
40.333333333333	0	0
6.8333333333333	-0.29429712828708	0
7.1666666666667	-0.28872883340808	0
7	0	0
7.2211097499487	-1.0538354750778	0
7.0053271435993	-0.61041034021496	0
6.7615011526461	-0.87509566217461	0
9.5	-0.29429712828707	0
9.3333333333333	0	0
9.1666666666667	-0.28872883340808	0
7.3333333333333	0	0
39.666666666667	0	0
39.833333333333	-0.29429712828708	0
13.674580112811	-1.7184248716052	0
14.353791495618	-2.0265268011931	0
13.958469529133	-1.3940906823913	0
7.6666666666667	0	0
7.8333333333333	-0.55217395360814	0
8	0	0
12.994672856401	-0.61041034021496	0
5.5920110570139	-0.75760412093209	0
5.8348685364776	-1.5356869134354	0
9.8333333333333	-0.35154628884586	0
9.5718321806872	-0.87509566217461	0
10.166666666667	-0.55217395360814	0
7.33337923226	-0.57364431858631	0
10.36828810089	-1.6552861219901	0
6.6666666666667	0	0
36.666666666667	0	0
36.833333333333	-0.29429712828708	0
37.5	-0.55217395360814	0
24.333333333333	0	0
24	0	0
12.503171480364	-0.86507900392268	0
12.328351644367	-1.416191408927	0
12.778890250051	-1.0538354750778	0
11.5	-0.28867513459481	0
19.666666666667	0	0
19.833333333333	-0.35154628884586	0
20	0	0
9.6666666666667	0	0
20.5	-0.28872883340808	0
20.666666666667	0	0
20.333333333333	0	0
20.905165514021	-0.87509566217461	0
10.5	-0.35154628884586	0
10.333333333333	0	0
9.3280061897341	-0.61041034021496	0
10.833333333333	-0.29429712828707	0
10.666666666667	0	0
22.833333333333	-0.55217395360814	0
22.5	-0.72876886968591	0
22.915493514149	-1.1101467813362	0
5.2020787936337	-1.0219070688786	0
18.833333333333	-0.29429712828707	0
18.925344390347	-0.75760412093207	0
19.166666666667	-0.35154628884587	0
22.666666666667	0	0
22.5	-0.35154628884586	0
13.833333333333	-0.55217395360814	0
14	0	0
16.833333333333	-0.55217395360814	0
0	0	0
14.166666666667	-0.35154628884586	0
14.333333333333	0	0
14.5	-0.55217395360814	0
14.833333333333	-0.35154628884586	0
14.666666666667	0	0
15	0	0
15.166666666667	-0.55217395360814	0
15.333333333333	0	0
2.0948344859795	-0.87509566217461	0
2.2850956781966	-0.60378553647187	0
12	0	0
11.666666666667	0	0
22.166666666667	-0.95506458788032	0
22.166666666667	-0.55217395360814	0
21.833333333333	-0.7287688696859	0
15.5	-0.35154628884586	0
15.666666666667	0	0
17	0	0
20.833333333333	-0.29429712828707	0
20.661339523067	-0.61041034021495	0
9	0	0
14.166666666667	-0.72876886968591	0
17.333333333333	0	0
17.166666666667	-0.35154628884586	0
18	0	0
17.666666666667	0	0
17.833333333333	-0.55217395360814	0
17.5	-0.29429712828708	0
16.258677723681	-0.75760412093209	0
12.833333333333	-0.28872883340808	0
18.166666666667	-0.35154628884586	0
18.333333333333	0	0
17.407988942986	-0.7576041209321	0
19	0	0
19.333333333333	0	0
18.666666666667	0	0
12.166666666667	-0.28867513459481	0
12.333333333333	0	0
15.833333333333	-0.55217395360814	0
20.166666666667	-0.55217395360814	0
19.5	-0.55217395360815	0
7.5	-0.28867513958836	0
23.5	-0.29429712828708	0
21.833333333333	-0.35154628884586	0
22	0	0
26.592011057014	-0.7576041209321	0
22.333333333333	0	0
23.934922518609	-1.0280995368212	0
25.166666666667	-0.35154628884587	0
25.5	-0.55217395360815	0
25.333333333333	0	0
23.166666666667	-0.35154628884586	0
23	0	0
26.666666666667	0	0
26.5	-0.29429712828708	0
23.666666666667	0	0
23.333333333333	0	0
26.166666666667	-0.55217395360814	0
26.333333333333	0	0
26	0	0
24.761501152646	-0.87509566217461	0
24.951762344863	-0.60378553647187	0
24.5	-0.35154628884586	0
33.5	-0.35154628884586	0
33.238498847354	-0.8750956621746	0
33.833333333333	-0.55217395360815	0
24.666666666667	0	0
28.166666666667	-0.35154628884587	0
28.5	-0.55217395360815	0
28.333333333333	0	0
25	0	0
24.833333333333	-0.29429712828707	0
27.761501152646	-0.87509566217461	0
27.951762344863	-0.60378553647187	0
29.333333333333	0	0
29	0	0
29.166666666667	-0.55217395360814	0
25.833333333333	-0.35154628884586	0
29.947484315848	-0.62869436758688	0
30.409983486194	-0.76921735210505	0
34.166666666667	-0.72876886968591	0
34.166666666667	-0.35154628884586	0
25.666666666667	0	0
35.445556916718	-1.0538354750779	0
35.333287434407	-0.57364431858632	0
29.666666666667	0	0
29.5	-0.28872883340808	0
26.834868536478	-1.5356869134355	0
30.833333333333	-0.28872883340808	0
30.671365010853	-0.57276869068256	0
27.666666666667	0	0
38.204670056311	-1.4270134762662	0
38.601589185276	-1.0280995368212	0
38.094834485979	-0.87509566217463	0
28	0	0
27.833333333333	-0.29429712828707	0
36.662074300781	-0.56642454030296	0
28.666666666667	0	0
31.746636025369	-1.1187108767801	0
28.833333333333	-0.35154628884586	0
33	0	0
33.166666666667	-0.29429712828707	0
33.333333333333	0	0
34.5	-0.55217395360814	0
34.731644951192	-0.92970615345739	0
35.666666666667	0	0
35.5	-0.28872883340809	0
30.333333333333	0	0
31	0	0
31.166666666667	-0.28867513958836	0
31.333333333333	0	0
38.285095678197	-0.60378553647188	0
37.833333333333	-0.35154628884586	0
30.666666666667	0	0
30.5	-0.29429712828708	0
36.5	-0.28872883340808	0
33.666666666667	0	0
36.41952417611	-0.77749898599357	0
38.5	-0.35154628884586	0
38.833333333333	-0.55217395360815	0
38.666666666667	0	0
29.657657699283	-0.83081436360664	0
40.168201869811	-1.5356869134355	0
40.5	-0.55217395360814	0
39.925344390347	-0.75760412093211	0
32.994672856401	-0.61041034021495	0
31.5	-0.35154628884586	0
43	0	0
42.666666666667	0	0
42.833333333333	-0.29429712828707	0
43.404176293252	-0.42323554094762	0
35.88498281448	-1.5034830799843	0
41.166666666667	-0.29429712828708	0
41.074655609653	-0.75760412093211	0
41.5	-0.55217395360814	0
41	0	0
41.333333333333	0	0
34.333333333333	0	0
32.166666666667	-0.35154628884586	0
32.333333333333	0	0
39.5	-0.55217395360814	0
39.333333333333	0	0
36.500673817427	-1.6307728168531	0
40.833333333333	-0.35154628884586	0
34.666666666667	0	0
35.333333333333	0	0
35.166666666667	-0.28867513958836	0
35	0	0
36.333333333333	0	0
36	0	0
12.333333329009	-0.57732068917697	0
37.666666666667	0	0
7.9035368819631	-1.2622568520387	0
28.737635378193	-1.2311528923644	0
29.212976838479	-1.0424777721347	0
28.833333333333	-0.7287688696859	0
12.66662076774	-0.57364431858631	0
38.166666666667	-0.29429712828707	0
38.333333333333	0	0
12.5	-0.28867513958836	0
39	0	0
39.166666666667	-0.35154628884586	0
20.347766676375	-1.1439190584087	0
19.833333333333	-0.7287688696859	0
40.666666666667	0	0
42.5	-0.35154628884586	0
10	0	0
18.5	-0.55217395360815	0
41.666666666667	0	0
23.428167819313	-0.87509566217462	0
42	0	0
42.166666666667	-0.29429712828707	0
42.333333333333	0	0
42.744785246826	-0.77776727251482	0
41.833333333333	-0.35154628884586	0
38	0	0
41.542494325991	-1.1832128457714	0
2.6015891852757	-1.0280995368212	0
13.258353909981	-1.6064355191183	0
4.8333333333333	-0.72876886968591	0
15.5	-0.7287688696859	0
15.8687454603	-1.0219070688786	0
16.501535203144	-1.5356869134354	0
14.833333333333	-0.72876886968591	0
12.666666666667	0	0
17.797921206366	-1.0219070688786	0
18.166666666667	-0.7287688696859	0
36.905165514021	-0.87509566217463	0
32.666666666667	0	0
32.5	-0.55217395360814	0
34.833333333333	-0.28867513459481	0
34.999999995676	-0.57732068917696	0
34	0	0
35.169838147031	-0.8650790039227	0
42.285095678197	-0.60378553647188	0
41.877780449001	-0.80261564071807	0
13.238498847354	-0.87509566217461	0
11.333333333333	0	0
11.697267761921	-1.4738194081615	0
12.166692603518	-0.86967323340335	0
3.1666666666667	-0.72876886968591	0
11	0	0
18.535412126967	-1.0219070688787	0
25.833333333333	-0.7287688696859	0
25.268255851942	-1.0280995368211	0
28.268255851942	-1.0280995368211	0
[...]
CELL_DATA 1424
SCALARS Coverage double 1
LOOKUP_TABLE default
2.8551451048563 3.1133379728203 2.0204039533932 2.5749017748554 1.7968585385194 2.9728080604848 2.8414308966655 2.3142156890041 2.7235391467703 2.6050694265567 2.8048437303061 2.4105012825721 2.8550959448572 2.64650031628 2.6866282531342 2.6092635277443 2.4639539192592 3.2433097402475 2.6128596938458 3.2376767362401 3.2906656996971 3.2601287053624 2.9225217794386 2.9746646013864 2.9438793000298 2.9555476367253 2.9438493734954 2.8669373723574 2.5281422546664 2.9213355297587 2.9945780661022 2.640518286541 2.7566650891036 2.972590486611 2.8685353448316 2.7281034525267 2.9779973010787 3.327875683465 2.4808097939114 2.7141553811365 2.639406702085 3.029347390519 3.1461463071081 3.2775985889056 2.8234669040991 2.4537896219988 2.8497238598947 3.2883806240225 3.2913808422139 2.1301505345022 2.981330638843 3.0606273344378 2.6864849759615 2.3629085917632 2.7944597852431 2.6216600671121 2.4996932036197 2.4229387562047 2.8652027178095 2.9448096164225 3.3433431158677 2.8588535930245 3.1230220972751 2.3520782170797 2.5944226155076 3.081909436699 2.9862542667921 2.8945183915138 2.6390550481302 2.7757439252385 2.9165098040232 2.7018697089978 2.8150786865643 2.5744269848351 2.4033350473628 2.7136038474098 2.8090163025813 2.7193104904075 2.4540738339961 3.011611975597 2.7362516575034 2.584435794658 2.7306063563999 3.0713284790198 2.5942916171141 2.754918793483 3.007199754822 2.8675977728957 2.8271238306278 2.3253865952791 2.7580733318633 2.4209994491346 3.0606911406183 2.617976144234 2.5011017622476 2.9360815100554 2.3520703080396 3.0217497900494 2.7152641004843 3.0321374553456 2.6153884478006 3.0731243764105 2.6466396997818 3.0026439773996 2.8125844048401 2.682134369183 2.7908094428117 2.7497826641394 2.8242260232731 3.0264133503109 2.6109031516794 3.2432592420223 3.2803356803369 3.058433007621 2.6107145310363 2.8505536034625 3.1660304654113 2.7658495588902 3.1506463242894 2.8668992232542 2.7305661064659 2.8567964832523 2.9278228053305 2.7737381455983 2.694703015576 3.0657979303447 2.7097730795419 2.8091473869427 2.9069743370211 2.7933490332415 3.3287094485894 2.7188229557866 3.0347637624813 3.2749424203486 2.6196056185259 2.9119321830814 2.8609169574286 2.9388849878152 3.1946933393073 2.8918657556988 3.1686155171804 3.1001796198497 2.7097129870398 2.7078723236745 3.0795607070175 2.9334446435158 3.410897012008 2.9797686417913 2.73110688317 3.1970772889378 2.832125485729 2.7264851983461 2.9917339299715 3.2176497854516 2.7807676276529 3.1866026436243 2.5725796370792 3.0472918676177 2.9619857332688 2.821765761005 2.5592486389779 2.8042216145752 3.1002104433675 2.319770892198 3.4101453401576 2.9867571954849 2.7452613629423 3.0703093133984 2.5989819974167 2.8488154259214 3.2242427732423 3.1666313317654 2.9029003340213 3.2119816471017 2.6472586508001 2.9041919218728 2.6455864302342 3.1866264719863 3.2196645209511 3.4167043589059 2.5923365542778 3.0965122406725 2.965856394012 3.0978850809537 2.9751222707797 2.8792168378992 2.7042496835224 2.754550476903 2.7139518630849 2.4105966413595 2.7666126732571 2.7306681988405 2.863296492914 2.9323721702349 3.0883743368128 2.3085681682197 2.4297844759323 2.7784444362854 2.4748717079097 2.9968937833744 2.9267132196226 2.8409829684961 3.1892640621008 2.9126676034934 2.3100343618 2.5067442442477 2.6290312321301 3.0554474853567 2.7161845182489 2.9539189764634 3.2099012105996 2.9585546575983 2.6474389705059 3.1325825342367 2.637239359774 2.9620466360209 2.7739619735626 2.6746221876423 2.7500834600222 2.4387938478583 2.860638454938 2.5625318067301 2.5343393638501 2.6469432584993 2.4890686554171 2.8243669138165 2.8268298814969 3.0876599937685 2.8766975286586 2.7328895808441 3.0568356688776 3.1161499737913 2.5211518663244 2.8704103805069 2.5206713155202 2.8692868878058 2.6977317710583 3.2427911007508 2.9121537125943 2.9660453017543 2.8380396117633 2.6894328353159 2.7166135636999 2.8644707996047 2.6571520952055 2.9859920822859 2.852021556667 2.1520067221562 2.7091222432454 2.7493919628132 2.9513037899878 2.5947169814769 2.7007840554761 2.6222766250201 2.7620645517783 3.0889667172849 2.6399992194581 2.9011718480951 2.3042261860919 2.47106702414 3.1549209705853 2.3168886476314 2.6389936863196 2.7885168432487 2.5788516826982 2.8064746522072 2.5282693878608 2.6064048000902 2.7070228818082 2.260093389802 2.546078217688 2.6465100739044 2.5390559278831 2.5359132734289 2.4535937515855 2.6219915307644 2.7452843836486 2.7885190593356 2.6080302187386 2.611979655014 2.7819284336082 3.2423568064245 2.884665869217 2.5033841541994 2.6437781030402 2.6187839171447 2.735003911786 2.6777767208894 2.7583673779847 2.8348979649946 2.6662736568193 2.7780883259407 2.7914340007524 3.4281047575373 2.8529727321032 2.891550587163 2.7287754371819 2.7974984227064 2.8201106414445 3.4252513516359 2.8644806493823 3.0046372237855 2.7285751217746 2.5684833071696 2.9514807031184 2.7602984678374 2.814148658964 3.4160959730448 2.9385666500147 2.937826284338 2.9262137695568 3.3703027300682 2.6695146583764 2.789239715774 2.5904531981575 2.3944705985064 2.8972204869891 2.5975122362254 2.6870866422063 3.104531538567 2.6994758163569 3.032072715706 2.8048121033431 3.0103807570755 2.3031887742259 2.4045146211793 2.5739930118861 2.5531750161851 2.6470349589097 2.7642514357572 2.5861707005754 2.4900453632749 2.5963506157398 2.8122204362069 2.7697060223941 2.903967500048 2.3632969345248 2.256494812173 2.8575747581799 3.2891298306798 2.9731731614488 2.7929056406682 2.6374434103235 2.6563067895151 2.6121400596129 2.7374731659382 2.6493089680034 2.8464542578835 2.675272069302 2.6566919124585 2.9072401219894 2.5536371872621 2.2831818059319 2.5835533236562 2.5117670561209 2.3439684216245 2.6928004224073 2.7003079403154 2.4089081109085 2.9415552398319 2.61900469726 2.4773328137804 2.5398046122739 2.6319308603167 2.5463544812556 2.6243016738541 2.3937624460674 2.8450748369949 2.7445650723099 3.0086248085126 2.6968993919649 2.6391602842238 2.6885697604965 2.8763209540047 2.7643415938948 3.0256189791493 2.7279802014433 2.9062809585237 2.8904723305306 2.6575599556674 2.7338938154657 3.037079027152 3.2256681883865 3.1656877142173 2.5824250050502 2.7683677544609 2.8083720349074 2.8669276042904 2.5405758891977 2.7272368796846 2.9046051450709 2.6994274116778 2.6109221756784 2.8114621056063 2.6146097547039 3.4234109100502 2.481899610451 2.5523286740084 2.3747515682907 2.611743611294 2.3042734870573 2.4584354017362 2.3221437314551 2.3709791082805 2.5454726260601 2.3344196984796 2.3106738799752 2.8858723864108 2.4565390085691 2.5171170918161 2.6049454794578 2.6627185156199 2.5409094539589 2.6291966523817 2.4931244301695 2.7033571892501 2.6697147252563 2.2823908380499 2.5184110553868 2.5489394693436 2.3883333632602 2.0210097495973 2.5262391489861 2.5779378091779 2.7539590438926 2.6153541637283 2.7648579374556 2.632698559208 2.2499568785577 2.7654466229836 2.5795560213611 2.7131040485247 2.5437211259519 2.8681715913201 2.5581823380641 2.8863672012359 2.5831460642126 2.2697018162517 2.2657936926759 2.680377753636 2.687903340479 2.7719372617716 2.5463438883863 2.4200438455852 2.2202618646924 2.8101777978791 2.6196356526861 2.8334059226551 2.6366530124136 2.6834740651551 2.4417245894277 2.4691837372128 1.9183066724181 2.5454649631839 2.4110077182396 2.0542775454548 2.2122744054455 2.423436939214 2.4628221496387 2.4797319006307 2.5388514122004 2.8947392693443 2.4625860056677 2.2305528185399 1.9720089185521 2.1634847691525 2.6398670352002 2.4036622249846 2.4296567292876 2.1056854824296 2.6678906651866 1.848843092836 2.7280037304664 2.5142307499065 2.5343612901406 2.4881160707464 2.7512716238743 3.2945505557256 2.391326042986 3.0825600769318 2.5100523121464 2.5238645671969 2.5623150315459 2.6050407644045 2.3803659123749 2.5955483108008 2.5105625198293 2.5347975684751 2.2609560943471 2.6352478374819 2.476808458094 2.6608143764298 2.113949364146 3.0849921146709 2.5302968676447 2.4532771692205 2.3180533962145 2.4042129357117 2.5237728301176 2.6257421677091 3.0194158251048 1.7861790123148 2.6880772437069 2.6148876120658 2.3553739577549 2.462866380074 2.0639787272145 2.1867755289506 2.5322270971201 2.277443391953 1.8988979895958 2.4615034140548 2.3705912812253 2.8071189207529 2.1424508656731 2.3388326030094 2.3074287718086 2.37230435191 2.0665157381009 2.106571825307 2.4875546447575 2.654777072028 2.5018029195072 2.4527654288398 2.287773915718 2.3337853526658 2.0190154296644 2.4702828874146 2.2231478461595 2.2296737022104 2.4899352097539 2.392894074724 2.5751286061616 2.3646311568843 2.1736348511932 2.5180288309387 1.8748373680799 2.1848332195798 2.4334458413178 1.6711047721885 2.2951085523136 2.2837102842123 2.5239202539 2.3525332570632 1.8522903837143 2.547402346387 2.5074558573422 2.5922583585324 2.6011214135009 2.4493135017791 2.3645459238285 2.4425414953187 2.4318629028235 2.4463112428975 2.1417074053766 2.0443516558318 2.6103522791631 2.5139935200059 2.3457945741733 2.4222434317236 2.3378149058242 2.672023320981 2.3886416704686 2.2664973124073 2.2419337847339 2.2750249239192 2.3875870367561 2.5410884212572 2.9652489503295 2.6111538038526 2.0429652050088 2.4873286552033 2.8306211627083 2.0051459427421 2.4105194623963 2.4116429087448 2.3049027283938 2.3022365158804 2.6331964952728 3.0531681004005 2.3976965285263 2.3411112437557 2.3385313447455 2.377568428852 2.6992780387172 2.4561873193938 2.1769421180689 2.1735540898717 1.7267517968787 2.1334197034988 2.2091199932064 1.7196448020633 2.7574669660626 2.6270936628063 2.3332693973842 2.2706688949569 2.6958532882337 2.6055794548186 2.0155385180799 1.346434642443 2.2588454462221 2.3207672382463 2.1492821690689 2.8314017594661 2.0610395394839 2.0457101402865 2.526487772865 2.7308897706891 2.4365412661249 2.3243162242123 2.4140992297194 2.3494112646555 2.1873676455988 2.4677166551829 2.1777619343392 2.3445756737899 2.4914893280596 3.209625087012 2.173221119792 2.0296231822325 1.9752202188657 2.190151701487 2.1451686662058 1.9890250325201 2.1943347405308 2.2626392495942 2.3043227611292 2.0748876848296 1.9957811315342 2.4904160682105 2.430277498075 2.5944368901319 2.3041504392051 1.8643923152132 2.410895636994 1.7349310747028 1.6510769406647 1.9096860220658 2.3384034194238 2.7066294163829 2.0017229781273 2.7046562405415 2.1458805086544 2.1579450782181 2.0166530440565 2.2667872004575 2.0269500790759 2.4977501331893 1.9345563720208 2.2838624651788 2.0873847765758 1.701209177325 2.1324208009543 2.1748513696607 2.2685894364392 2.2231790589025 2.2878336798035 2.0899544743156 2.3826771744905 2.7470626430799 2.0672344211922 2.3029745718345 2.2068063175735 2.1652733955639 2.3507833766124 2.1322589093643 2.1452599629241 2.6594842667955 2.4366470771633 2.1641535378092 2.8510402652949 1.5898599960314 2.0291945124088 2.6877371543802 2.1230185067957 2.3130918209726 1.3000222683089 2.0740998710579 2.7427683788097 2.1875409536509 1.8355472511344 1.9574647569625 2.3084895932652 2.125592687237 1.8925385130902 2.1376710728474 1.95629357069 2.0917073776423 1.9447246256203 2.3296561788961 2.0919758082728 1.8980497569939 2.1021292070312 2.0936013364054 2.1517556657224 2.0412105502223 2.0759833268065 2.895936866398 1.9850045106972 2.1674592974926 2.3327511649912 2.1707747930461 2.0250938478028 2.2226833263852 1.7928855150428 1.9668628085271 1.8566782801556 1.9334662110687 2.0783061552158 2.6943461508086 2.3216739619996 2.0197500470103 1.7883639102815 2.3846966302215 2.0514301157466 1.3521539966352 1.8243755444242 0.65120251634189 0.82361396558989 2.0238552718756 1.9855324225572 1.8659849644544 1.4539150941036 2.0990731664061 0.93799131813714 2.495438629651 2.6749191708096 1.9767607721479 1.4912677675382 1.2773543643412 1.8834306499839 2.5034100087105 1.6579684723543 1.7930181178556 1.871518158353 2.4477748593991 1.8462543340132 1.9001539912006 2.0285863713224 1.7127900022314 2.1668775646099 1.9395107358819 2.0935955854705 2.0260909476918 2.064435078864 1.867468116879 1.6201574695474 1.997380792321 2.2765764023644 1.6141556654908 2.4663850572599 2.5922969100772 2.4458682817646 1.9138547455125 2.3109385491002 1.6666743507437 1.5810985166846 1.7304083128887 1.6560553459383 1.875765480086 2.1301864576861 2.1696102328073 2.874028101755 1.7464828635309 1.733741286904 1.5964747465193 1.6634479319076 2.3940113949673 1.9759770002055 1.7995564010967 1.9860199392869 1.7680573635941 1.4402906577333 1.418398753523 2.0003242890403 1.6312736198419 1.548781320365 1.6180099334258 1.8661916247897 2.251303372366 1.3185276225812 1.899519628473 1.1891242065488 1.4390763928293 1.6108440812814 1.9671169022049 1.713274978801 2.2388805606081 2.0693328323828 2.0475940197405 2.1421970282183 1.7373544853291 1.9097673419021 1.8973231436862 1.7592433631114 1.8897345752812 1.9767195214352 1.560197753424 2.0533807492869 1.8081250213364 1.7142698201646 1.8490021284885 1.9029598957826 1.9058535492032 1.2287263844504 2.0375807153897 1.7193565117724 1.8091148791657 1.5132077271967 1.8371303127548 1.5652364097865 1.5241319598942 1.7111117575163 1.7437484162794 1.5579335308419 1.7526916550607 1.6437680564653 1.3892446700265 1.5172369278884 1.5983542357266 1.2616384843999 1.7391107110069 1.3580926525397 1.7730523939602 1.5862813092833 1.6354574893105 1.3332964640245 1.415608202107 0.98166113679142 1.2433020803348 1.4242365923221 1.3530732427773 1.2579369590924 1.5576812666109 1.4592389689754 1.6237815624777 1.1711378987145 1.7840822339867 1.9458823690298 2.0823120687212 1.7295471799149 1.5097749978879 1.5670607017559 1.6611802735935 1.5011407986057 1.4001857282883 1.916799933919 1.0210226184568 1.5443067032393 1.6003282232589 1.8288922499407 1.7407388685119 1.6270079394083 1.5213758028824 1.4950714574693 1.2888616426439 1.1699597440632 1.331299901595 1.5212267377869 1.3973981365668 1.5280394005471 1.1959419110198 1.8295085622977 1.477402380394 1.7476363093442 1.8176795352203 1.3943555466405 1.3799230777052 1.6605902655375 1.6687564866205 1.3557121596897 1.4822610643353 1.4025990502845 1.5320375979639 1.3378416397405 0.82688778307846 1.3031681538583 1.5931185428819 1.3255304795798 1.1067079876705 1.525630874366 1.382254418244 1.3202513931926 1.2169244948411 1.5306331928273 1.1198617776776 1.2653903053622 1.2884001481434 1.2916771158264 1.108503416106 1.2180431206712 0.76644337574028 0.97006945029902 1.1054393353846 0.96274564733329 1.3264155001485 1.3958408738263 1.2931457065343 1.0516228882605 0.81723317135708 1.1144234410433 1.150136392832 1.6597453195546 1.2978234498406 1.160400717313 1.042834923769 1.228537068187 1.0732627527346 1.2906936895814 0.51196005695567 1.1724869888981 1.5490147054137 0.97719772710658 1.1656549024139 0.79108474000007 0.85387828911724 1.075726541196 1.2990447507332 0.95631456037642 0.99799255708849 0.99714479180685 0.69732740407046 0.9858141625428 0.53218755939277 0.45520306479713 0.51423124217086 0.66669153788899 0.84728782200557 0.89425235165994 0.88572136223651 0.78436715688794 0.83231494582874 0.91209495015957 0.91507547199175 0.42937209282606 0.78905164773778 0.96869630640646 1.6551990563771 1.7074191301338 1.2300292569208 1.4169379278277 1.1512291936956 1.2673870802568 1.2294879960726 0.71988515792543 0.82509676715922 0.67808119948515 0.69195547203328 0.70882724036386 0.81122984593637 1.0916678225693 0.72359397477791 0.65777538665895 0.78446067827269 0.87699160017309 0.58664786752078 0.56115430618015 0.80145734181414 1.4448322625463 0.8282995350079 1.4258355958815 1.2161150581517 1.4879394931297 1.5754552090833 1.4546549748956 1.4131428815444 1.221467278885 1.3357872242966 1.3349868339557 0.88215579417661 0.73074980797381 0.54810538814589 0.45338109217776 0.44261030406823 0.92823477500298 1.1683446503874 1.1157930638253 1.422066251257 0.84815273044987 0.93672223135702 1.0336333085813 1.3663448678565 1.0777042479904 1.3188050303793 1.171910951495 0.98865003631403 0.84514710788765 0.75894196337877 0.57735224087095 0.79805219023182 0.46709217477606 1.1104021241376 1.1194045920381 1.515609175101 1.2238637003282 1.3256830842802 1.3060415639229 1.5565138467515 1.1181771775848 1.0498210712104 0.67448789529809 1.0125778011674 0.94833574686642 1.0158532100564 0.98831499240748 1.1586758603623 0.54639922854114 0.65037992242093 0.73447692104722 0.59139406807987 0.85760061697073 0.51983261940614 0.61280526036427 0.88534011331878 0.97805339982024 1.1201086957372 0.73162576494316 1.2310861155733 0.8126590512993 1.4137092360609 1.0582346991453 0.82620092043189 1.1962553408426 0.99534364366185 1.1428942846396 1.0926324792175 0.50795183729495 0.41305687023631 1.073887517261 0.73149200615698 0.80571241526459 0.68880871516018 0.72968087422608 1.1884980895811 0.57208602665109 0.72729241352989 0.90873940417662 0.78112612934244 1.0446145014271 0.96762736281156 0.65393990844553 0.54270214145956 1.1847052539355 1.1111675102505 1.2570680733778 0.94693691408857 1.0006945650841 1.0966972366112 1.0194837457138 0.84394665508888 0.91819969417296 1.0298742150906 0.63966892393772 0.44513747652718 0.89117143395902 0.58211084420938 0.84730922598144 0.85838272012271 0.3910666664755 0.50677054820089 0.55464693789107 0.63075514604232 0.92896985512077 1.034307831267 0.83874993854513 0.52523443344419 0.94075333551413 0.51052395852089 0.50339703380633 1.1196509406281 0.59937514318749 1.4211898495311 1.2474532145009 0.80221026138098 0.85472744622773 0.58083909723733 1.2221267091131 0.69913660612597 0.63927441003241 1.7186055071477 1.3860057830759 0.68084927688715 0.83490568588165 0.77158425407574 0.56920931519414 0.52424183903032 0.57194477818577 0.47880081680915 0.62199189295742 0.47496125806078 0.54058286983809 0.60022313147978 0.80212096776611 0.66815607674949 0.59973311812681 0.47855685595084 0.73207215819864 0.52053201653297 1.6965217265247 1.3676708895055 1.2099012031242 1.0956985324857 0.54134007814932 0.5952934801851 0.67792682665006 0.51158622994955 0.49841362876124 0.65569549118113 1.0291251086147 0.79803278416082 0.76157142391743 0.64030172413024 0.48137269093262 1.2194168269123 0.90174097683092 0.63502308771869 0.49670005909187 0.68288995104834 0.54070954082033 0.57095853609135 0.48618339664733 0.51056788719816 0.65360960724252 0.80608109830902 1.2067843617894 0.71462084556092 0.6629383829545 0.75952494688542 0.86325125097804 0.79107863098481 0.48156197485094 0.71961052969112 0.86568575636431 0.93041658347962 0.97144083416381 1.0416144818478 0.98391737726543 0.88183482465148 0.818467857769 0.94286638139287 0.69883121862515 0.73451476039759 0.66790329941657 0.92425486497773 0.52252292385746 1.1828513015482 0.87820924305287 1.335996262854 1.1911264505444 0.79400209085134 0.7503637351139 0.78901334154916 0.61959835109943 0.715963438206 0.48271645076812 0.95562880616429 0.71501627879426 0.81627756706348 0.95028251949667 0.86210565858847 1.20139111787 0.73258572420783 0.77328687698853 0.85813164656937 0.83159940228175 0.71497534966368 0.54203471272488 0.60891324627518 0.97617374404288 0.76977445312608 1.0187027130441 1.1107055900292 1.1060884496243 1.5151383310164 0.48181146844972 0.63177147051836 0.98146666217971 1.1269437397013 1.6109282546787 1.4775413381081 0.90124455801331 0.78350093072991 1.8023762270027 1.6287730356598 1.3574967267111 1.5006314802573 1.3228405381677 0.75810790738224 1.5832482431686 1.3293204685762 1.1872523408071 1.269753588734 1.1358101507785 0.87315323903486 0.94917482752302 1.1130334509427 0.94562338227801 0.94917601620594 0.87859302721598 1.2557515301106 1.5171036283602 2.0575482732642 1.7582677672617 1.4957946485769 1.2693894599164 1.1454477723635 0.75902720234454 1.259217500817 1.0574993818025 1.3403130066812 1.0457184196701 1.0441166591152 0.88898342832994 1.2101477561168 0.84353829325455 0.81141565973324 1.1448086751989 2.018873616768 1.8905569588655 2.0112870782375 1.638884008726 1.1071923614058 1.3534065052243 1.4926476030526 1.4212173009358 1.3672023596103 1.3215978259675 1.3302822391774 1.4677112902826 1.1900109446046 0.98888016964661 1.8607806264852 1.6753553429365 0.74244677342175 0.44582532188255 0.60338103580073 0.51204376191303 1.2591403149666 1.4952904398983 0.55719478685335 0.47436568137354 0.5645