# vtk DataFile Version 3.0
d-2__ created by libgimli-v1.5.0-1-g5991b6ac
ASCII
DATASET UNSTRUCTURED_GRID
POINTS 10201 double
0	-10	0
0.5	-10	0
0.5	-9.9	0
0	-9.9	0
1	-10	0
1	-9.9	0
1.5	-10	0
1.5	-9.9	0
2	-10	0
2	-9.9	0
2.5	-10	0
2.5	-9.9	0
3	-10	0
3	-9.9	0
3.5	-10	0
3.5	-9.9	0
4	-10	0
4	-9.9	0
4.5	-10	0
4.5	-9.9	0
5	-10	0
5	-9.9	0
5.5	-10	0
5.5	-9.9	0
6	-10	0
6	-9.9	0
6.5	-10	0
6.5	-9.9	0
7	-10	0
7	-9.9	0
7.5	-10	0
7.5	-9.9	0
8	-10	0
8	-9.9	0
8.5	-10	0
8.5	-9.9	0
9	-10	0
9	-9.9	0
9.5	-10	0
9.5	-9.9	0
10	-10	0
10	-9.9	0
10.5	-10	0
10.5	-9.9	0
11	-10	0
11	-9.9	0
11.5	-10	0
11.5	-9.9	0
12	-10	0
12	-9.9	0
12.5	-10	0
12.5	-9.9	0
13	-10	0
13	-9.9	0
13.5	-10	0
13.5	-9.9	0
14	-10	0
14	-9.9	0
14.5	-10	0
14.5	-9.9	0
15	-10	0
15	-9.9	0
15.5	-10	0
15.5	-9.9	0
16	-10	0
16	-9.9	0
16.5	-10	0
16.5	-9.9	0
17	-10	0
17	-9.9	0
17.5	-10	0
17.5	-9.9	0
18	-10	0
18	-9.9	0
18.5	-10	0
18.5	-9.9	0
19	-10	0
19	-9.9	0
19.5	-10	0
19.5	-9.9	0
20	-10	0
20	-9.9	0
20.5	-10	0
20.5	-9.9	0
21	-10	0
21	-9.9	0
21.5	-10	0
21.5	-9.9	0
22	-10	0
22	-9.9	0
22.5	-10	0
22.5	-9.9	0
23	-10	0
23	-9.9	0
23.5	-10	0
23.5	-9.9	0
24	-10	0
24	-9.9	0
24.5	-10	0
24.5	-9.9	0
25	-10	0
25	-9.9	0
25.5	-10	0
25.5	-9.9	0
26	-10	0
26	-9.9	0
26.5	-10	0
26.5	-9.9	0
27	-10	0
27	-9.9	0
27.5	-10	0
27.5	-9.9	0
28	-10	0
28	-9.9	0
28.5	-10	0
28.5	-9.9	0
29	-10	0
29	-9.9	0
29.5	-10	0
29.5	-9.9	0
30	-10	0
30	-9.9	0
30.5	-10	0
30.5	-9.9	0
31	-10	0
31	-9.9	0
31.5	-10	0
31.5	-9.9	0
32	-10	0
32	-9.9	0
32.5	-10	0
32.5	-9.9	0
33	-10	0
33	-9.9	0
33.5	-10	0
33.5	-9.9	0
34	-10	0
34	-9.9	0
34.5	-10	0
34.5	-9.9	0
35	-10	0
35	-9.9	0
35.5	-10	0
35.5	-9.9	0
36	-10	0
36	-9.9	0
36.5	-10	0
36.5	-9.9	0
37	-10	0
37	-9.9	0
37.5	-10	0
37.5	-9.9	0
38	-10	0
38	-9.9	0
38.5	-10	0
38.5	-9.9	0
39	-10	0
39	-9.9	0
39.5	-10	0
39.5	-9.9	0
40	-10	0
40	-9.9	0
40.5	-10	0
40.5	-9.9	0
41	-10	0
41	-9.9	0
41.5	-10	0
41.5	-9.9	0
42	-10	0
42	-9.9	0
42.5	-10	0
42.5	-9.9	0
43	-10	0
43	-9.9	0
43.5	-10	0
43.5	-9.9	0
44	-10	0
44	-9.9	0
44.5	-10	0
44.5	-9.9	0
45	-10	0
45	-9.9	0
45.5	-10	0
45.5	-9.9	0
46	-10	0
46	-9.9	0
46.5	-10	0
46.5	-9.9	0
47	-10	0
47	-9.9	0
47.5	-10	0
47.5	-9.9	0
48	-10	0
48	-9.9	0
48.5	-10	0
48.5	-9.9	0
49	-10	0
49	-9.9	0
49.5	-10	0
49.5	-9.9	0
50	-10	0
50	-9.9	0
0.5	-9.8	0
0	-9.8	0
1	-9.8	0
1.5	-9.8	0
2	-9.8	0
2.5	-9.8	0
3	-9.8	0
3.5	-9.8	0
4	-9.8	0
4.5	-9.8	0
5	-9.8	0
5.5	-9.8	0
6	-9.8	0
6.5	-9.8	0
7	-9.8	0
7.5	-9.8	0
8	-9.8	0
8.5	-9.8	0
9	-9.8	0
9.5	-9.8	0
10	-9.8	0
10.5	-9.8	0
11	-9.8	0
11.5	-9.8	0
12	-9.8	0
12.5	-9.8	0
13	-9.8	0
13.5	-9.8	0
14	-9.8	0
14.5	-9.8	0
15	-9.8	0
15.5	-9.8	0
16	-9.8	0
16.5	-9.8	0
17	-9.8	0
17.5	-9.8	0
18	-9.8	0
18.5	-9.8	0
19	-9.8	0
19.5	-9.8	0
20	-9.8	0
20.5	-9.8	0
21	-9.8	0
21.5	-9.8	0
22	-9.8	0
22.5	-9.8	0
23	-9.8	0
23.5	-9.8	0
24	-9.8	0
24.5	-9.8	0
25	-9.8	0
25.5	-9.8	0
26	-9.8	0
26.5	-9.8	0
27	-9.8	0
27.5	-9.8	0
28	-9.8	0
28.5	-9.8	0
29	-9.8	0
29.5	-9.8	0
30	-9.8	0
30.5	-9.8	0
31	-9.8	0
31.5	-9.8	0
32	-9.8	0
32.5	-9.8	0
33	-9.8	0
33.5	-9.8	0
34	-9.8	0
34.5	-9.8	0
35	-9.8	0
35.5	-9.8	0
36	-9.8	0
36.5	-9.8	0
37	-9.8	0
37.5	-9.8	0
38	-9.8	0
38.5	-9.8	0
39	-9.8	0
39.5	-9.8	0
40	-9.8	0
40.5	-9.8	0
41	-9.8	0
41.5	-9.8	0
42	-9.8	0
42.5	-9.8	0
43	-9.8	0
43.5	-9.8	0
44	-9.8	0
44.5	-9.8	0
45	-9.8	0
45.5	-9.8	0
46	-9.8	0
46.5	-9.8	0
47	-9.8	0
47.5	-9.8	0
48	-9.8	0
48.5	-9.8	0
49	-9.8	0
49.5	-9.8	0
50	-9.8	0
0.5	-9.7	0
0	-9.7	0
1	-9.7	0
1.5	-9.7	0
2	-9.7	0
2.5	-9.7	0
3	-9.7	0
3.5	-9.7	0
4	-9.7	0
4.5	-9.7	0
5	-9.7	0
5.5	-9.7	0
6	-9.7	0
6.5	-9.7	0
7	-9.7	0
7.5	-9.7	0
8	-9.7	0
8.5	-9.7	0
9	-9.7	0
9.5	-9.7	0
10	-9.7	0
10.5	-9.7	0
11	-9.7	0
11.5	-9.7	0
12	-9.7	0
12.5	-9.7	0
13	-9.7	0
13.5	-9.7	0
14	-9.7	0
14.5	-9.7	0
15	-9.7	0
15.5	-9.7	0
16	-9.7	0
16.5	-9.7	0
17	-9.7	0
17.5	-9.7	0
18	-9.7	0
18.5	-9.7	0
19	-9.7	0
19.5	-9.7	0
20	-9.7	0
20.5	-9.7	0
21	-9.7	0
21.5	-9.7	0
22	-9.7	0
22.5	-9.7	0
23	-9.7	0
23.5	-9.7	0
24	-9.7	0
24.5	-9.7	0
25	-9.7	0
25.5	-9.7	0
26	-9.7	0
26.5	-9.7	0
27	-9.7	0
27.5	-9.7	0
28	-9.7	0
28.5	-9.7	0
29	-9.7	0
29.5	-9.7	0
30	-9.7	0
30.5	-9.7	0
31	-9.7	0
31.5	-9.7	0
32	-9.7	0
32.5	-9.7	0
33	-9.7	0
33.5	-9.7	0
34	-9.7	0
34.5	-9.7	0
35	-9.7	0
35.5	-9.7	0
36	-9.7	0
36.5	-9.7	0
37	-9.7	0
37.5	-9.7	0
38	-9.7	0
38.5	-9.7	0
39	-9.7	0
39.5	-9.7	0
40	-9.7	0
40.5	-9.7	0
41	-9.7	0
41.5	-9.7	0
42	-9.7	0
42.5	-9.7	0
43	-9.7	0
43.5	-9.7	0
44	-9.7	0
44.5	-9.7	0
45	-9.7	0
45.5	-9.7	0
46	-9.7	0
46.5	-9.7	0
47	-9.7	0
47.5	-9.7	0
48	-9.7	0
48.5	-9.7	0
49	-9.7	0
49.5	-9.7	0
50	-9.7	0
0.5	-9.6	0
0	-9.6	0
1	-9.6	0
1.5	-9.6	0
2	-9.6	0
2.5	-9.6	0
3	-9.6	0
3.5	-9.6	0
4	-9.6	0
4.5	-9.6	0
5	-9.6	0
5.5	-9.6	0
6	-9.6	0
6.5	-9.6	0
7	-9.6	0
7.5	-9.6	0
8	-9.6	0
8.5	-9.6	0
9	-9.6	0
9.5	-9.6	0
10	-9.6	0
10.5	-9.6	0
11	-9.6	0
11.5	-9.6	0
12	-9.6	0
12.5	-9.6	0
13	-9.6	0
13.5	-9.6	0
14	-9.6	0
14.5	-9.6	0
15	-9.6	0
15.5	-9.6	0
16	-9.6	0
16.5	-9.6	0
17	-9.6	0
17.5	-9.6	0
18	-9.6	0
18.5	-9.6	0
19	-9.6	0
19.5	-9.6	0
20	-9.6	0
20.5	-9.6	0
21	-9.6	0
21.5	-9.6	0
22	-9.6	0
22.5	-9.6	0
23	-9.6	0
23.5	-9.6	0
24	-9.6	0
24.5	-9.6	0
25	-9.6	0
25.5	-9.6	0
26	-9.6	0
26.5	-9.6	0
27	-9.6	0
27.5	-9.6	0
28	-9.6	0
28.5	-9.6	0
29	-9.6	0
29.5	-9.6	0
30	-9.6	0
30.5	-9.6	0
31	-9.6	0
31.5	-9.6	0
32	-9.6	0
32.5	-9.6	0
33	-9.6	0
33.5	-9.6	0
34	-9.6	0
34.5	-9.6	0
35	-9.6	0
35.5	-9.6	0
36	-9.6	0
36.5	-9.6	0
37	-9.6	0
37.5	-9.6	0
38	-9.6	0
38.5	-9.6	0
39	-9.6	0
39.5	-9.6	0
40	-9.6	0
40.5	-9.6	0
41	-9.6	0
41.5	-9.6	0
42	-9.6	0
42.5	-9.6	0
43	-9.6	0
43.5	-9.6	0
44	-9.6	0
44.5	-9.6	0
45	-9.6	0
45.5	-9.6	0
46	-9.6	0
46.5	-9.6	0
47	-9.6	0
47.5	-9.6	0
48	-9.6	0
48.5	-9.6	0
49	-9.6	0
49.5	-9.6	0
50	-9.6	0
0.5	-9.5	0
0	-9.5	0
1	-9.5	0
1.5	-9.5	0
2	-9.5	0
2.5	-9.5	0
3	-9.5	0
3.5	-9.5	0
4	-9.5	0
4.5	-9.5	0
5	-9.5	0
5.5	-9.5	0
6	-9.5	0
6.5	-9.5	0
7	-9.5	0
7.5	-9.5	0
8	-9.5	0
8.5	-9.5	0
9	-9.5	0
9.5	-9.5	0
10	-9.5	0
10.5	-9.5	0
11	-9.5	0
11.5	-9.5	0
12	-9.5	0
12.5	-9.5	0
13	-9.5	0
13.5	-9.5	0
14	-9.5	0
14.5	-9.5	0
15	-9.5	0
15.5	-9.5	0
16	-9.5	0
16.5	-9.5	0
17	-9.5	0
17.5	-9.5	0
18	-9.5	0
18.5	-9.5	0
19	-9.5	0
19.5	-9.5	0
20	-9.5	0
20.5	-9.5	0
21	-9.5	0
21.5	-9.5	0
22	-9.5	0
22.5	-9.5	0
23	-9.5	0
23.5	-9.5	0
24	-9.5	0
24.5	-9.5	0
25	-9.5	0
25.5	-9.5	0
26	-9.5	0
26.5	-9.5	0
27	-9.5	0
27.5	-9.5	0
28	-9.5	0
28.5	-9.5	0
29	-9.5	0
29.5	-9.5	0
30	-9.5	0
30.5	-9.5	0
31	-9.5	0
31.5	-9.5	0
32	-9.5	0
32.5	-9.5	0
33	-9.5	0
33.5	-9.5	0
34	-9.5	0
34.5	-9.5	0
35	-9.5	0
35.5	-9.5	0
36	-9.5	0
36.5	-9.5	0
37	-9.5	0
37.5	-9.5	0
38	-9.5	0
38.5	-9.5	0
39	-9.5	0
39.5	-9.5	0
40	-9.5	0
40.5	-9.5	0
41	-9.5	0
41.5	-9.5	0
42	-9.5	0
42.5	-9.5	0
43	-9.5	0
43.5	-9.5	0
44	-9.5	0
44.5	-9.5	0
45	-9.5	0
45.5	-9.5	0
46	-9.5	0
46.5	-9.5	0
47	-9.5	0
47.5	-9.5	0
48	-9.5	0
48.5	-9.5	0
49	-9.5	0
49.5	-9.5	0
50	-9.5	0
0.5	-9.4	0
0	-9.4	0
1	-9.4	0
1.5	-9.4	0
2	-9.4	0
2.5	-9.4	0
3	-9.4	0
3.5	-9.4	0
4	-9.4	0
4.5	-9.4	0
5	-9.4	0
5.5	-9.4	0
6	-9.4	0
6.5	-9.4	0
7	-9.4	0
7.5	-9.4	0
8	-9.4	0
8.5	-9.4	0
9	-9.4	0
9.5	-9.4	0
10	-9.4	0
10.5	-9.4	0
11	-9.4	0
11.5	-9.4	0
12	-9.4	0
12.5	-9.4	0
13	-9.4	0
13.5	-9.4	0
14	-9.4	0
14.5	-9.4	0
15	-9.4	0
15.5	-9.4	0
16	-9.4	0
16.5	-9.4	0
17	-9.4	0
17.5	-9.4	0
18	-9.4	0
18.5	-9.4	0
19	-9.4	0
19.5	-9.4	0
20	-9.4	0
20.5	-9.4	0
21	-9.4	0
21.5	-9.4	0
22	-9.4	0
22.5	-9.4	0
23	-9.4	0
23.5	-9.4	0
24	-9.4	0
24.5	-9.4	0
25	-9.4	0
25.5	-9.4	0
26	-9.4	0
26.5	-9.4	0
27	-9.4	0
27.5	-9.4	0
28	-9.4	0
28.5	-9.4	0
29	-9.4	0
29.5	-9.4	0
30	-9.4	0
30.5	-9.4	0
31	-9.4	0
31.5	-9.4	0
32	-9.4	0
32.5	-9.4	0
33	-9.4	0
33.5	-9.4	0
34	-9.4	0
34.5	-9.4	0
35	-9.4	0
35.5	-9.4	0
36	-9.4	0
36.5	-9.4	0
37	-9.4	0
37.5	-9.4	0
38	-9.4	0
38.5	-9.4	0
39	-9.4	0
39.5	-9.4	0
40	-9.4	0
40.5	-9.4	0
41	-9.4	0
41.5	-9.4	0
42	-9.4	0
42.5	-9.4	0
43	-9.4	0
43.5	-9.4	0
44	-9.4	0
44.5	-9.4	0
45	-9.4	0
45.5	-9.4	0
46	-9.4	0
46.5	-9.4	0
47	-9.4	0
47.5	-9.4	0
48	-9.4	0
48.5	-9.4	0
49	-9.4	0
49.5	-9.4	0
50	-9.4	0
0.5	-9.3	0
0	-9.3	0
1	-9.3	0
1.5	-9.3	0
2	-9.3	0
2.5	-9.3	0
3	-9.3	0
3.5	-9.3	0
4	-9.3	0
4.5	-9.3	0
5	-9.3	0
5.5	-9.3	0
6	-9.3	0
6.5	-9.3	0
7	-9.3	0
7.5	-9.3	0
8	-9.3	0
8.5	-9.3	0
9	-9.3	0
9.5	-9.3	0
10	-9.3	0
10.5	-9.3	0
11	-9.3	0
11.5	-9.3	0
12	-9.3	0
12.5	-9.3	0
13	-9.3	0
13.5	-9.3	0
14	-9.3	0
14.5	-9.3	0
15	-9.3	0
15.5	-9.3	0
16	-9.3	0
16.5	-9.3	0
17	-9.3	0
17.5	-9.3	0
18	-9.3	0
18.5	-9.3	0
19	-9.3	0
19.5	-9.3	0
20	-9.3	0
20.5	-9.3	0
21	-9.3	0
21.5	-9.3	0
22	-9.3	0
22.5	-9.3	0
23	-9.3	0
23.5	-9.3	0
24	-9.3	0
24.5	-9.3	0
25	-9.3	0
25.5	-9.3	0
26	-9.3	0
26.5	-9.3	0
27	-9.3	0
27.5	-9.3	0
28	-9.3	0
28.5	-9.3	0
29	-9.3	0
29.5	-9.3	0
30	-9.3	0
30.5	-9.3	0
31	-9.3	0
31.5	-9.3	0
32	-9.3	0
32.5	-9.3	0
33	-9.3	0
33.5	-9.3	0
34	-9.3	0
34.5	-9.3	0
35	-9.3	0
35.5	-9.3	0
36	-9.3	0
36.5	-9.3	0
37	-9.3	0
37.5	-9.3	0
38	-9.3	0
38.5	-9.3	0
39	-9.3	0
39.5	-9.3	0
40	-9.3	0
40.5	-9.3	0
41	-9.3	0
41.5	-9.3	0
42	-9.3	0
42.5	-9.3	0
43	-9.3	0
43.5	-9.3	0
44	-9.3	0
44.5	-9.3	0
45	-9.3	0
45.5	-9.3	0
46	-9.3	0
46.5	-9.3	0
47	-9.3	0
47.5	-9.3	0
48	-9.3	0
48.5	-9.3	0
49	-9.3	0
49.5	-9.3	0
50	-9.3	0
0.5	-9.2	0
0	-9.2	0
1	-9.2	0
1.5	-9.2	0
2	-9.2	0
2.5	-9.2	0
3	-9.2	0
3.5	-9.2	0
4	-9.2	0
4.5	-9.2	0
5	-9.2	0
5.5	-9.2	0
6	-9.2	0
6.5	-9.2	0
7	-9.2	0
7.5	-9.2	0
8	-9.2	0
8.5	-9.2	0
9	-9.2	0
9.5	-9.2	0
10	-9.2	0
10.5	-9.2	0
11	-9.2	0
11.5	-9.2	0
12	-9.2	0
12.5	-9.2	0
13	-9.2	0
13.5	-9.2	0
14	-9.2	0
14.5	-9.2	0
15	-9.2	0
15.5	-9.2	0
16	-9.2	0
16.5	-9.2	0
17	-9.2	0
17.5	-9.2	0
18	-9.2	0
18.5	-9.2	0
19	-9.2	0
19.5	-9.2	0
20	-9.2	0
20.5	-9.2	0
21	-9.2	0
21.5	-9.2	0
22	-9.2	0
22.5	-9.2	0
23	-9.2	0
23.5	-9.2	0
24	-9.2	0
24.5	-9.2	0
25	-9.2	0
25.5	-9.2	0
26	-9.2	0
26.5	-9.2	0
27	-9.2	0
27.5	-9.2	0
28	-9.2	0
28.5	-9.2	0
29	-9.2	0
29.5	-9.2	0
30	-9.2	0
30.5	-9.2	0
31	-9.2	0
31.5	-9.2	0
32	-9.2	0
32.5	-9.2	0
33	-9.2	0
33.5	-9.2	0
34	-9.2	0
34.5	-9.2	0
35	-9.2	0
35.5	-9.2	0
36	-9.2	0
36.5	-9.2	0
37	-9.2	0
37.5	-9.2	0
38	-9.2	0
38.5	-9.2	0
39	-9.2	0
39.5	-9.2	0
40	-9.2	0
40.5	-9.2	0
41	-9.2	0
41.5	-9.2	0
42	-9.2	0
42.5	-9.2	0
43	-9.2	0
43.5	-9.2	0
44	-9.2	0
44.5	-9.2	0
45	-9.2	0
45.5	-9.2	0
46	-9.2	0
46.5	-9.2	0
47	-9.2	0
47.5	-9.2	0
48	-9.2	0
48.5	-9.2	0
49	-9.2	0
49.5	-9.2	0
50	-9.2	0
0.5	-9.1	0
0	-9.1	0
1	-9.1	0
1.5	-9.1	0
2	-9.1	0
2.5	-9.1	0
3	-9.1	0
3.5	-9.1	0
4	-9.1	0
4.5	-9.1	0
5	-9.1	0
5.5	-9.1	0
6	-9.1	0
6.5	-9.1	0
7	-9.1	0
7.5	-9.1	0
[...]
CELL_DATA 10000
SCALARS Coverage double 1
LOOKUP_TABLE default
-0.27430413672871 -0.2471192168382 -0.2213533162266 -0.19701474945013 -0.17411930277288 -0.15274381658803 -0.13283118289214 -0.1142008759989 -0.096947757644243 -0.081144212575534 -0.066555345598134 -0.053271523018233 -0.041115580093199 -0.030054160891405 -0.019905178633123 -0.010470297981216 -0.0020816177946991 0.0057410769842853 0.012727630095343 0.019237748309873 0.025042641808553 0.030553903925481 0.035453172253089 0.040068652846349 0.044437836394861 0.048215812279126 0.051978962145529 0.0551928155389 0.058236406536422 0.061018460091113 0.063716297231854 0.066203212438496 0.068715188896812 0.0711945985482 0.073319246772819 0.075452006860729 0.077698865050196 0.07974740094125 0.081753587787402 0.083758474587059 0.085450432558318 0.087051158699617 0.088381447876272 0.089576541468992 0.090533132314697 0.091434281470031 0.091777506236658 0.091938110315854 0.091694507435161 0.091210399188025 0.090497599547242 0.089764398945802 0.08892503327671 0.088232284418336 0.087550318705366 0.086975052755692 0.086235050115989 0.085443396690009 0.08446701650943 0.083359172317532 0.08211543112478 0.080566393271339 0.078976107677299 0.077052926559958 0.074662882628029 0.071870805846928 0.068724403954075 0.064973486222057 0.060843192347897 0.056120343107708 0.050941912653418 0.045081919393018 0.038728795578264 0.031978226123664 0.024664613656945 0.016948105881698 0.0087075100548039 0.00011443491131123 -0.0090731252886931 -0.018502329296872 -0.02857686141709 -0.038963433936917 -0.049989144055861 -0.061519304868959 -0.073701481887637 -0.086300498279888 -0.099394579415519 -0.11312497967533 -0.12721724029106 -0.14225272986008 -0.15823430316541 -0.17490690222635 -0.19232902026744 -0.21066115118685 -0.23003573907359 -0.25063916639655 -0.27235172083426 -0.29505303925638 -0.31872376811336 -0.34341035347504 -0.26304211850454 -0.23552960139933 -0.20946066467289 -0.18484273506063 -0.16169891874824 -0.14009324346204 -0.11998185331005 -0.10120477197177 -0.083811347130675 -0.067855159145333 -0.053179273306412 -0.039785196969424 -0.027543387288215 -0.016396817739576 -0.0061776386863987 0.0032733244514827 0.011758702849624 0.019584514361071 0.026657372919778 0.033154928467143 0.039047281314215 0.044533869467797 0.049500247866476 0.054145319246168 0.058491875137024 0.062350083733305 0.066068181688766 0.069337635988328 0.072357249238373 0.075154554662415 0.077821392066881 0.080339488397441 0.082852357555922 0.085281816736293 0.087445433774086 0.089560822417614 0.09177939417312 0.093859993549503 0.095863521108599 0.097824975404667 0.099558877559632 0.10113035711978 0.10245933445816 0.10360948327369 0.10460123375391 0.10546242229261 0.10584362762052 0.10596160778515 0.1057553125199 0.10526686245059 0.10456746847004 0.10382173727672 0.10304229681769 0.10232064857537 0.10169999749702 0.10114768376554 0.10046009912927 0.099693795041568 0.098786356557299 0.097729417444232 0.096510059353633 0.095031785108521 0.093482267924712 0.091584708733864 0.08925515235238 0.086489054790787 0.083340268007734 0.079640055402943 0.075502929474507 0.070796617286227 0.065579170869834 0.059716975877539 0.053340753076793 0.046530555886994 0.03920460186718 0.031445270278565 0.023157937731218 0.01446486543646 0.0052694275143002 -0.0042715253584325 -0.014377017912085 -0.024848519250594 -0.035943686847 -0.047609244811903 -0.059844875628595 -0.072544392422199 -0.085776325257726 -0.099584673024439 -0.11381623026338 -0.12899355656855 -0.1450940969425 -0.16194506322158 -0.17953406787532 -0.19804300796863 -0.21762475251364 -0.23845990814881 -0.26042406278626 -0.2833971017928 -0.30734389664573 -0.33233825463948 -0.25168171088515 -0.22383564878855 -0.19745695836864 -0.17255438693875 -0.14915856876788 -0.12732294008692 -0.10701306967139 -0.088079951434204 -0.070548607745925 -0.054446386986567 -0.039673825549226 -0.02617831556445 -0.013851428060005 -0.0026252644049303 0.0076596480451149 0.017144393907073 0.025699706190182 0.033554997015639 0.040682976829433 0.047193954557299 0.053143136782852 0.058636165643851 0.063646688366046 0.068320648530651 0.072663837197955 0.076579348350876 0.080277968990796 0.083576749767488 0.086583084085188 0.089392977554486 0.09204437108058 0.094570408698316 0.097082705881179 0.099489377367059 0.10166478268026 0.10376752375577 0.10597725477615 0.10806978419744 0.11007197115112 0.11200537054999 0.11375819454521 0.11530922370417 0.11664010995472 0.11775770858225 0.11876154999352 0.11960126162706 0.12000021647083 0.12010018234803 0.11991915841583 0.11942444744597 0.11874040119389 0.11799310313173 0.11724878462632 0.11652652768261 0.1159505624942 0.11542338404635 0.11479026621028 0.11405878374089 0.11320864414504 0.11221106716169 0.11103018230029 0.10961491313833 0.10810761633415 0.10624309878655 0.10395817609574 0.10122560094892 0.098098149687623 0.094427894262704 0.090287977352173 0.085592376521432 0.080348051469118 0.074468163361025 0.068072601053834 0.061222435699828 0.053869941183218 0.046065493502928 0.037730702176034 0.028955029405571 0.019730011907378 0.010099911875331 -5.8974505035333e-05 -0.010608991077994 -0.021778877438862 -0.033551928883527 -0.045868158584545 -0.058667539804171 -0.072019901556801 -0.085920279176065 -0.10028210822756 -0.11559308324661 -0.13182591161534 -0.14884691801441 -0.16660666646113 -0.18529178263125 -0.2050822199117 -0.22615093126233 -0.24837288470079 -0.27161866296309 -0.29584714668962 -0.32115483938487 -0.24022563103855 -0.21203874786702 -0.18534248108693 -0.16015086020327 -0.13650023144928 -0.11443404163769 -0.093925460196984 -0.074830564316443 -0.057159483966738 -0.040917662262144 -0.026043706032201 -0.012451364150269 -4.0586627027763e-05 0.011261450357401 0.021609492360092 0.031137221971104 0.039749150883349 0.047645376946412 0.054813215132849 0.06135149053195 0.067339369249557 0.072854766130181 0.077896502295873 0.082600640229451 0.086949058371222 0.090908213368663 0.094601872601281 0.097917876641491 0.10091277119817 0.10373680832962 0.10637911947972 0.10890580857648 0.11141297291984 0.11380676240447 0.11598324467819 0.11808313558819 0.12028177181749 0.12238379897474 0.12438143875178 0.12629739480916 0.12805492927132 0.12960217617719 0.13092039477206 0.13202105276967 0.13302345519731 0.13385244134764 0.13425410802073 0.13435313649166 0.13418114270183 0.1336921418442 0.13301939445349 0.13227557675487 0.13155256689754 0.13084495327873 0.13029816108704 0.12981184163569 0.12922643783696 0.12853716503315 0.12773642346566 0.12680959405681 0.1256737679511 0.12431670323864 0.12285526651565 0.12102974089655 0.11878081782051 0.11609076263782 0.11298824910074 0.10934442160681 0.10520547965061 0.10051203951908 0.095244091744762 0.089355068977828 0.082931333937471 0.076043673745557 0.068656804223766 0.060811374471524 0.05242459429614 0.043581085852804 0.034309299142903 0.024604179693636 0.014381649159256 0.0037568866567787 -0.0074921921573753 -0.019362366989688 -0.031769562379101 -0.044668969595021 -0.058124607788093 -0.072129812654804 -0.086616474132226 -0.10205582385057 -0.11842631481249 -0.13561395934128 -0.15354566004867 -0.17241050436116 -0.19241147707774 -0.21371411901327 -0.23619950231063 -0.25971753480414 -0.2842331569028 -0.30985014633992 -0.22867076072044 -0.20013948093831 -0.17311975853057 -0.14763411401981 -0.12372442139422 -0.1014268785026 -0.080717149664039 -0.061457433900377 -0.043643788629439 -0.027267936380673 -0.012289884892931 0.00139521556518 0.013890492873397 0.025264093992187 0.035678428725063 0.045250730650277 0.053914192948961 0.061851959632138 0.069051436034967 0.075626368875784 0.08164447751145 0.08718527637321 0.09225477599059 0.096987423310806 0.10134937890239 0.10534187182975 0.10903640262983 0.11236296132726 0.11534805649877 0.11818639447795 0.12082535581441 0.12334885555565 0.12584681170413 0.12823200984925 0.13040568272886 0.13250977877542 0.13469756637201 0.13680158421506 0.13879683655414 0.14070133581648 0.14245846049439 0.14400431216162 0.14530656760713 0.14639127233924 0.14738635491467 0.14820819974927 0.14861513148419 0.14871924464945 0.14854514249657 0.14806452813461 0.14740082358712 0.14666498241471 0.14596309867036 0.14527957870807 0.14475058484779 0.14430676772656 0.14376921370602 0.14312557996778 0.14238019136977 0.14152462213366 0.14043846588135 0.13914051561642 0.1377202268201 0.13594114414581 0.13372983846624 0.13108537606975 0.12800639378636 0.12438935391283 0.12024881446456 0.11556209612319 0.1102664049309 0.10437159964356 0.097914959888611 0.090993803671741 0.083574002412894 0.075691344042245 0.067244651693824 0.05833808627473 0.049004632315882 0.039233226404083 0.028946296788917 0.018249164499356 0.0069219512364477 -0.0050426343082626 -0.017545519307661 -0.030538863466795 -0.044096463153431 -0.058209779065304 -0.072821004885808 -0.08838294971451 -0.10489973906555 -0.12224710757911 -0.14035292392655 -0.15939830851522 -0.17961435038555 -0.20115336236328 -0.22390402688599 -0.24769587348221 -0.27250379369312 -0.29843028610999 -0.21703076002736 -0.18813738366734 -0.16078865105859 -0.13500524363834 -0.11083194560004 -0.088302315833557 -0.067389752247504 -0.047962815406926 -0.030004423999984 -0.013495020028628 0.0015848344930845 0.015360703292781 0.027941738168609 0.039383294552548 0.049865497717083 0.059481396734568 0.06819305319394 0.07617241830256 0.083400457763467 0.090013164287903 0.096061996010117 0.10162879724106 0.10672201591427 0.11148373625869 0.11585846949532 0.1198794705715 0.12358230924237 0.12691395193882 0.12989557144021 0.13274618926811 0.13538536846872 0.13789878742038 0.14038708525579 0.1427660370698 0.14494017223218 0.14704762024906 0.14922270497884 0.15132514240047 0.15331747972443 0.15521517484269 0.15697131756487 0.15851309293386 0.15980239737846 0.16086764726147 0.16185369226627 0.16267157344693 0.16308954276296 0.16319620927037 0.16301849714277 0.16254133473537 0.16188875340503 0.16116602544624 0.16048093864005 0.15982720750726 0.15931236764946 0.15890741676722 0.15842375700093 0.15782829778808 0.15713630753949 0.15635720883154 0.15532090835725 0.15408170302701 0.1527066873534 0.15097914905651 0.14880197633057 0.14620483955746 0.14315066393972 0.13955915725488 0.13542375854774 0.13073853619314 0.12541780664612 0.11951393290065 0.11302079516114 0.10607170203136 0.098625796479198 0.090697098258807 0.082189472658378 0.073222530747251 0.063822935700879 0.05399138228053 0.043644704382147 0.032867499704216 0.021468912716221 0.0094080364542316 -0.0031805761074768 -0.016272601636629 -0.029938171560528 -0.044158440554069 -0.058895757350414 -0.074578854577312 -0.091246302850142 -0.10875075543008 -0.12703178577733 -0.14625668414905 -0.16668850020285 -0.18846417737688 -0.21148759954598 -0.23555692256259 -0.26066138511482 -0.28689363567459 -0.20529293730414 -0.17603527267415 -0.14835131326247 -0.12226547909147 -0.097825261161991 -0.075061519875823 -0.053944478474227 -0.034347154728494 -0.016242900905043 0.00039716808506397 0.015578911794332 0.029445800140194 0.042109668420168 0.053618379026953 0.064167709655804 0.07382636826819 0.082589474613071 0.090604193739871 0.097864128793895 0.10451183773223 0.11059128667341 0.11618435401127 0.12130191783587 0.12608988324204 0.13047791536167 0.13453130488725 0.13824249098488 0.14157400170717 0.1445554331559 0.1474157528031 0.15005699811512 0.15256230690699 0.15503902895944 0.15740866682997 0.15958893223427 0.16169340095527 0.16385687273644 0.16596397700633 0.167948158708 0.16983659178798 0.17159496498527 0.17312776013707 0.17440321537813 0.17545760434019 0.17643628610841 0.17723903067874 0.17767024542698 0.17777734135293 0.1775976908131 0.17713113255689 0.17648587154617 0.17577592667115 0.17510791544988 0.17448116347342 0.17398247209076 0.17362343805922 0.17319685430374 0.17264402252259 0.17201166040182 0.17130542414739 0.17031984127402 0.16914657630598 0.16782239938198 0.16614332434497 0.16400603765281 0.16144892573383 0.15841957620762 0.15485547671572 0.15073102972188 0.14604475097978 0.14070396264476 0.13477953405545 0.12825496914661 0.1212750298393 0.11380356685238 0.10582920701133 0.097271377198179 0.088232316324846 0.07876983580989 0.06887316975021 0.058466752935133 0.047616104645056 0.036149347377909 0.023997951919046 0.011317381391318 -0.0018726063060116 -0.01564950826938 -0.029974007578931 -0.044836015930096 -0.060643975028702 -0.077463429837948 -0.095123227909498 -0.11358029817 -0.13298963487832 -0.15363519981408 -0.17565593997802 -0.19895276893042 -0.22330376442325 -0.24870525800422 -0.27524089723229 -0.19346298480167 -0.16383475663053 -0.13580912506653 -0.10941513117939 -0.084705555127146 -0.061705615848186 -0.04038098977658 -0.020612214917861 -0.002360778877928 0.014408746190534 0.029693005615307 0.043650661725866 0.056394084724215 0.067968344328666 0.078582715075455 0.088286033920379 0.09709996193933 0.10514674600176 0.11244198500202 0.11912364129553 0.12523630364285 0.13085391961073 0.1359988898561 0.14080870996342 0.14521071261136 0.14929630919363 0.15301431092611 0.15634484943329 0.15932875964766 0.16219743804698 0.16483849778495 0.16734251122009 0.1698015717888 0.17216270666951 0.17434750105535 0.17645061796199 0.17860408363631 0.18071709529378 0.18269015527369 0.18456834031006 0.18632926513217 0.18785241249418 0.18911422160514 0.19016184716391 0.19112755543154 0.19191783915875 0.19235994030863 0.19246867496489 0.19228752085761 0.19183090542291 0.19119453402013 0.19049770461852 0.1898425898377 0.18924798951298 0.18876461754689 0.18845206040999 0.18808251260954 0.18757686206282 0.18700367682868 0.18637262185654 0.18543788745696 0.18433519454802 0.18306220708021 0.18143645058213 0.17933884868999 0.1768178137512 0.17381794351096 0.17027917453387 0.16616866581044 0.16147773267926 0.15612450199661 0.1501745315033 0.14362131208727 0.13660553201805 0.12911086045218 0.12108893123559 0.11248398938709 0.10337272548748 0.093853561405186 0.083882338549904 0.073419202422335 0.062492368952953 0.050960108526813 0.038719512812211 0.025946817313288 0.012662804959821 -0.0012277670167254 -0.015654222488753 -0.030639593905358 -0.046579721990031 -0.063549177313121 -0.081368922655642 -0.10000003690653 -0.11959537881468 -0.14046090964803 -0.16272981464306 -0.18630182375352 -0.21093871883842 -0.2366378971402 -0.26348303606187 -0.18153819248974 -0.15153715888872 -0.12316353591282 -0.096456460939288 -0.071474389981099 -0.048234726743086 -0.026701397806928 -0.0067579386944704 0.011639331487893 0.028537602267871 0.043925158582247 0.05797314895677 0.070794373072365 0.082434743514178 0.093111660455657 0.10285903060198 0.11172393122786 0.11980178466981 0.12713485536052 0.13384506642199 0.13999713331227 0.14563823978444 0.15081350058887 0.15564023400032 0.16006046731786 0.16417417979315 0.16789877612058 0.17123533082537 0.17422333344028 0.17709676947047 0.17973785250733 0.18223243957875 0.18467875543991 0.18703838775594 0.18922096711982 0.19132738555089 0.19347145186522 0.19558365901828 0.19754780331391 0.19942246988103 0.20117936785447 0.20269803022219 0.20394091377459 0.20497594774379 0.20593049173219 0.2067164505719 0.20716629722665 0.20727540407861 0.20708926330028 0.20663790935235 0.20601441641565 0.20533035656816 0.20468702956917 0.20412995797595 0.20366865248732 0.2033945694628 0.20307827462585 0.20263256691287 0.20212117437255 0.20156489310575 0.20069307188087 0.19964489341981 0.19842516956374 0.19685753100393 0.19480354449615 0.1923241650804 0.18935461463503 0.1858337344738 0.18173309088145 0.17704329855802 0.17167822371947 0.16570379693645 0.15911926937689 0.1520646232062 0.14454533566192 0.13647697702344 0.12782892858437 0.11864933632712 0.1090682782182 0.09902741088157 0.088497114875092 0.077501899308386 0.065900298050872 0.053572651548189 0.04070567889436 0.02732551439935 0.013325320424968 -0.0012041572743009 -0.016307686148531 -0.032381287766193 -0.049503078149588 -0.067487643690195 -0.086294056886333 -0.10607602404226 -0.12716225750047 -0.14968462664714 -0.17353688809338 -0.19846527778463 -0.22446254845406 -0.25161349464954 -0.16952443731596 -0.13914326037241 -0.11041586294895 -0.083391045600175 -0.05813081455714 -0.034650711773938 -0.012907887848385 0.0072118508354352 0.025755523770257 0.042782101307708 0.058273450398686 0.07241259012126 0.085309595767604 0.097014618627975 0.10775688547952 0.1175482118684 0.12645981877965 0.13457051849064 0.14194539159384 0.14868130046888 0.15487333903305 0.16053814433303 0.1657417952679 0.17058479444189 0.17502507163095 0.17916546784509 0.18290392736865 0.18624415327587 0.18923929802315 0.192117082991 0.19475621269891 0.19723487670101 0.19967209971445 0.20203539192092 0.20421699806634 0.20632367384875 0.20845232613737 0.21056591447775 0.21252469861401 0.2143912046068 0.21614441109934 0.21766211896654 0.21888252894993 0.21990341062409 0.2208443351158 0.22162283032464 0.22208723360016 0.22219716162793 0.22200424355951 0.22155546154523 0.22094168180217 0.22027163860174 0.21964714417598 0.21912056640263 0.21868525372738 0.21845226541288 0.21819310236133 0.21780744302535 0.21736506634367 0.21687928992128 0.21607367464027 0.21508386971091 0.21392155318882 0.21240444325178 0.21039967658685 0.20796508517747 0.20501968948977 0.20151981233702 0.19743290704341 0.19273975898623 0.1873651229206 0.18136663596862 0.17475114976522 0.16765544685793 0.16011565349088 0.15199420417671 0.14330272237728 0.1340616910055 0.12441201614044 0.11430399971145 0.10370199167169 0.092647363764133 0.080969227872144 0.068559173487247 0.055604458427296 0.042118846037173 0.028013285080374 0.013379433651618 -0.0018425073472185 -0.018054005265171 -0.035326010581825 -0.053478255259664 -0.072462719835897 -0.092436125705049 -0.11374509510526 -0.1365225254096 -0.16065955938541 -0.18588552684911 -0.21218157028463 -0.23963904209605 -0.15742303304427 -0.12665246189965 -0.097565717016814 -0.070218734833067 -0.04467493600975 -0.020954781705117 0.00099817556295201 0.021295962635915 0.039987773169185 0.057141192774732 0.072736048204615 0.086966112086491 0.099938517612602 0.11171032144126 0.12251534366946 0.13235017677531 0.1413106698535 0.14945541308033 0.15687309240254 0.16364033171709 0.16986776816214 0.17555746398632 0.1807899680946 0.1856474510813 0.19011685829493 0.19427339855459 0.1980273512297 0.20137171300714 0.20437668115201 0.20725725515255 0.20989233378483 0.21235693583808 0.21478958551729 0.21715775290632 0.21933776608463 0.22144111056714 0.22355146342299 0.22566522676724 0.22762457639902 0.22947795074116 0.23122930726373 0.23274294875579 0.23394047877788 0.23494659056765 0.23587573857265 0.23664580974158 0.23712463325361 0.23723722819635 0.23703331113716 0.23658688059174 0.23598713369356 0.23532598485083 0.23472285847248 0.23422471899631 0.23381635256456 0.23362647241303 0.23342936488088 0.23310191001162 0.23273469347372 0.23231621034509 0.2315865871961 0.23065217992973 0.22954725836877 0.2280883817342 0.22613194138125 0.22373566393968 0.22081864654678 0.21733965459044 0.21326146712382 0.20856987493182 0.20318423905283 0.19716349383649 0.19051724511262 0.18338105211142 0.17581457635801 0.16765501528198 0.15890840445217 0.1496011150175 0.13988527098889 0.12971016911115 0.11903583368378 0.10792372724541 0.096166127049327 0.083675132956408 0.070635806309866 0.057042505574248 0.042830876426539 0.028093176272881 0.012753391917922 -0.0036007598594905 -0.0210222782483 -0.039342640058857 -0.058510111842057 -0.078675572430926 -0.10020960633312 -0.12324533894795 -0.14767135557758 -0.17319816720104 -0.19979641763726 -0.2275558449356 -0.14525006712276 -0.11406704431574 -0.084613285850879 -0.056939744596856 -0.031109987438605 -0.0071473475781244 0.015016632572539 0.035496925722982 0.054336213848401 0.071615006935137 0.087312306022527 0.10163458916901 0.11468049640548 0.12652165823592 0.13738809201114 0.14726964090301 0.15627508746918 0.16445633127399 0.17191866006783 0.17871902459343 0.18498094339205 0.19069531964027 0.19595845996466 0.20083299159952 0.20533218717077 0.20950374799335 0.21327590722268 0.21662468843199 0.2196457752522 0.22252004637408 0.22515841195797 0.2276085861179 0.23003653689