# vtk DataFile Version 3.0
d-3__ created by libgimli-v1.5.0-1-g5991b6ac
ASCII
DATASET UNSTRUCTURED_GRID
POINTS 1483 double
3.3802423101098	12.435481574566	-0.57001420684378
3	12	-0.2857142857143
3.4959596309848	11.998298039034	0
3.2490070092203	12.168560129388	0
6.0395510135596	13.367156253372	-1.2757999763971
6.5930002103947	12.023472734859	-1.2922192071349
5.4998599382803	12.552571297657	-0.59337769664261
5.29662096318	11.932351047571	-1.5392209346082
5.6153020589615	9.1440579133635	-1.0774777831171
5.7237069713611	8.5589744845549	-0.30827017969781
5	9	-0.2857142857143
5.3151026533923	8.4249591108801	-0.38240156963578
2.3178923476779	4.1926464382665	0
2.5373292327812	4.4716333182052	-0.48281884804687
2.3342974478463	4.0018571812202	-0.30572640106363
1.9994701911036	4.4258543307655	0
4.8968211033092	12.507755029533	0
5	12	-0.2857142857143
5.2932790228536	12.494788035524	0
0	0	-0.2857142857143
0.54768630893449	0.55020446432687	-0.60775225926193
-0.16846798780902	-0.24002860812406	-0.65332445545953
-0.28063481777066	0.41453578455018	-0.44890469943706
7.7	3.575	0
7.3102059000399	3.7470939102263	0
7.7	3.6732286664853	-0.53772532608145
7.3176226410905	3.2857280588852	0
-0.7	-0.10798167686939	-0.47517111104905
-0.7	-0.57707899562378	-1.1376990549501
-0.7	-0.61986630133594	-0.43486724047509
6.3962361866998	10.611290418241	-1.3182185489848
6.565939673393	9.5694509864085	-0.57379796778735
7.1295911592009	10.496363016677	-0.48219980545192
6.3839624611364	10.341052129245	-0.35036617584397
7.7	14.3	-2.5
6.7623683783591	12.987112326146	-2.233077027779
7.7	13.059020885286	-3.3539705522597
7.7	13.327367479896	-2.129915020979
1	6	0
1	6	-0.2857142857143
0.93236760237426	6.49128333619	0
1.3454573625665	6.353105459937	0
2	5	-0.2857142857143
2.1684298754346	4.7403793023811	0
3.0226729813355	8.4836106439452	0
2.5164096947204	8.910651700233	-0.41109082170818
3.4071201441719	8.4167381876838	-0.59109415332551
2.5374808587914	8.1383747261781	-0.35604109466584
6.2778911301719	14.3	-0.61136458754231
6.2225356773765	13.691717475418	0
6.5208076177088	13.495118289851	-0.49928801204061
6.7358646795693	14.3	-0.39005656748015
5.7965188279432	13.281940723964	0
5.5320359851605	12.925291312368	0
5.353113789845	13.264183036004	0
5.5919457801018	13.101154188917	-0.33537516396337
7	10	-0.2857142857143
7	10	0
6.5010306427949	10.010760669106	0
6.8196744207924	9.5136576917357	0
7.7	1.1375	0
7.7	1.6430719769933	-0.42557297445049
7.1939383721229	1.4724531054162	0
7.7	1.625	0
6.3572581294301	1.4772201134971	-0.96507376287322
6.5574763981385	0.84898833643366	-0.48332647821142
6.7774291048203	1.7003141153393	-0.4123635555875
6.1433933962903	1.4220674799247	-0.28622251631329
-0.7	9.1984657118068	-1.9278839451739
0.33291529395702	8.3305676904572	-1.2970017952003
-0.7	8.1442617177323	-1.0898260028896
-0.7	7.644268062563	-2.0766032868031
4.508194357046	8.6258793740749	-0.60770874662543
5.0095189690676	8.5009469809039	0
4.7609249278557	8.7686419230913	0
6.2306672701993	2.67753718	0
6.6360398560532	2.4670661479797	-0.44686919005428
6.4910302172834	2.4939022421641	0
6.1550873755842	2.4572757142813	-0.33684154297057
1	1	0
1	1	-0.2857142857143
1.4901571161019	0.99574153349402	0
1.1736530561382	0.72346383359363	0
2	4	-0.2857142857143
2	4	0
1.6440539242474	4.1532454240512	0
7.7	6.9501255673919	-0.74418826283982
7	7	-0.2857142857143
6.7521552376889	6.497772044976	-0.66059363300197
7.7	6.3887218416049	-0.46884913673037
5.9482896260331	7.5800048202495	0
6	8	-0.2857142857143
6.3095291646476	7.6896230263426	0
6.1432247512519	7.3579252770212	-0.41388970597853
3.501272057481	12.437082442362	0
3.3297831413816	12.805427976196	0
3.6823393063421	12.851671876304	0
1.3671388209093	10.633374397873	-0.4152980605108
0.95248763025238	9.835503527633	-1.7808732395437
2.3518021577517	10.495200039554	-0.50930668321109
1.5373497846005	10.021005779616	-0.41781002197689
6.2054585007625	14.3	-1.3884356875417
6.9442913034148	14.3	-0.89278753613404
1	8	-0.2857142857143
0.54167473049383	7.7707286368021	-0.37916050195481
0.44975345341211	8.3808810318019	-0.31136669048163
1.022076618805	8.4121844676845	-0.45670843222423
0.89173681858685	4.6122796653579	0
1	5	-0.2857142857143
1.2386083631299	4.6841794176855	0
1.3923592539172	4.7130963353432	-0.25978315417498
6.4242299347383	5.6840176993625	-0.35514079575845
6	5	-0.2857142857143
6.3424541740313	5.2754910113697	0
6.0447933133998	5.5049876953384	0
5	2	0
5	2	-0.2857142857143
5.5190673049038	1.9208326821789	0
5.2306444928855	1.6547875838902	0
5	13	-0.2857142857143
5.257359886178	13.540476325965	-0.63012071696907
0	6	0
0	6	-0.2857142857143
0.066757795936057	6.5008369551487	0
0.29243888553297	6.1743316976873	0
7	9	-0.2857142857143
6.5033796411008	8.9981073418213	0
6.5607922823332	8.4440251373986	-0.63122800754088
6.811726958696	8.7028726276344	0
7	5	0
7	5	-0.2857142857143
6.4986646723997	4.9192017057136	0
6.7141996182955	5.3303468264748	0
7.7	9.5988491781319	-7.4736716195817
3.1507199964473	10.394874003632	-10
4.8663216648816	7.3792654266676	-10
5.1015502438684	11.553440122249	-6.405163284031
7	7	0
6.9589015254993	7.4884372736447	0
6.761634669635	7.2408783569561	0
6.0574437090791	0.20878539066113	-1.8779478182653
4.9838025543493	-1.3	-2.1179854334408
6.0308685444023	-1.3	-3.5425074203685
6.440522236286	-1.3	-2.0103523001383
3	2	0
3	2	-0.2857142857143
3.0105846506	1.4855923993349	0
2.6480485575569	1.6700894103009	0
5.0527203000088	13.535479310798	-1.5373151531841
5.0246691847863	14.3	-1.036131499603
4.1300067609037	14.3	-1.2024507502556
4.4744197407865	13.547407617085	-0.63586628370479
2.5813517996865	9.6286485974984	-1.0236151505326
2.2955236368793	9.5881134365907	-0.29154811067367
3	10	-0.2857142857143
6.4248505083522	12.522044346884	-0.42559946143008
6.465073985677	12.51782996062	0
6.1644652963082	12.36965297069	0
6.3832046574853	12.135664356038	0
2.9908655166747	12.498069465114	0
1.984703560175	7.5906357794687	-0.50777967523709
1.0508409188237	7.354634772545	-0.95680796450018
1.4515039911109	6.5829264157992	-0.56173008002516
1.3866216751759	7.5118935788728	-0.35488362790971
2.45	14.3	0
2.2168273415577	13.627179222019	0
2.4554693735383	13.497784276817	-0.39727655195048
3.032551925238	13.762466584345	0
6	11	-0.2857142857143
6	11	0
6.4843452951013	10.966514281357	0
6.2440599782187	11.234710090977	0
5.5	-0.5576923076923	0
5.247952850371	-0.29481663567353	0
5.5452342683804	-0.096294524539033	-0.49623355575102
5.1016398375367	-0.61489919294387	-0.38960315167385
2.3232496140345	4.0110297188843	-1.3835068702753
1.6586320571652	5.8268322896535	-1.5213554090482
0.71002746520551	3.976198472286	-1.505315421377
1.3296414347056	4.9089994064226	-0.82629172929831
5.6	14.3	0
4.6510156691765	14.3	-0.56274723813486
-0.090060726359069	5.5363033123106	-0.44581840212762
0	5	-0.2857142857143
-0.38456492153953	5.1805342841446	0
-0.7	5.0205501441189	-0.32507149572551
3	13	-0.2857142857143
5.1848675157348	3.2965660830064	0
5.4046165570399	2.9501485228537	-0.43988698776777
5.486289771732	3.4981838484395	0
5.4682750147717	3.0660382780841	0
0	8	0
0	8	-0.2857142857143
0.5178658825659	8.020802151125	0
0.25864598874121	7.6639427314904	0
6.7098208972434	7.2950601162224	-1.3269022195366
7.7	7.949747446039	-0.91833665053736
7.1577047253729	7.4844276204668	-0.64272934527953
4.5892004575887	3.5369189576522	-0.55981654583505
4.4420188491858	3.4660037233365	0
4.711527897636	3.7375259681419	0
4.3494632088922	3.8023533541114	0
4	6	-0.2857142857143
4	6	0
3.9913416390327	5.4988534517732	0
4.5093195747582	5.724109532591	0
1.4	14.3	0
1.5	13.55769230769	0
0.89284349994875	13.714781914708	0
1.2292962491126	13.670420041977	-0.37788942865261
4	9	-0.2857142857143
4	9	0
4.5502440226935	9.051086551406	0
4.2963154051231	9.3907765114078	0
4.5321110402369	7.5028925212181	-0.60552533206341
3.5085861108931	7.3893844432383	-0.64873189634878
4.0050480592533	7.4977657988521	0
4	8	-0.2857142857143
5.8961095330637	-1.3	-1.0125722125019
4.8982045728458	-1.3	-0.82217786726149
5.2296982103621	-0.31621891710017	-1.0679345669244
4.9010483556055	1.478997710586	0
4.5631533182214	1.9074133665015	-0.41231302454656
5.0320642355688	1.4518180616801	-0.36509190625555
3.5357179442866	0.46434418042464	-0.60031716899974
3.9407498163335	-0.4411178910574	-1.1087857494349
3.2826824657074	-0.47747544834602	-0.50866572047373
2.802260468126	-0.22902113419037	-1.4542342115515
1	13	0
1	13	-0.2857142857143
1.1191337005982	13.329221525091	0
1.4884720276527	13.02962190928	0
-0.21681247778723	8.5792000107362	0
-0.35118339610893	9.0917088673227	0
-0.7	9.0968147603684	-0.35256881313688
-0.7	8.9375	0
0.51662331659314	-0.40156299802931	-0.67799391089861
0.13474046208011	-1.3	-0.85683826964205
-0.16941603187845	-0.57512411281067	-1.4019543009948
6	13	-0.2857142857143
6	13	0
5.8068477026831	12.499749736815	0
6.1890713266052	12.67695534294	0
2.5984255358496	5.4578875982232	-0.67264342113488
2.2172109403706	5.4325217687574	0
2.4824672258873	4.9705265694472	0
2.6598112065826	5.3330483814808	0
-0.7	0.5146532048839	-0.51418317722913
-0.7	1.0492756199945	-0.88024243711367
-0.37698118088761	0.89350663208132	-0.33360419980628
-0.25096134668857	0.95145340086689	-0.90448711690516
6	2	-0.2857142857143
5.4002158317804	1.7678073061348	-0.50898482673054
5.8183999242367	2.5164331321023	-1.0840550371572
-0.13917028340788	5.5182991349521	0
0.31578338747353	5.7567158690792	0
6	12	0
6	12	-0.2857142857143
5.513035862904	11.994753403328	0
1.5285536174902	4.2362319729344	-0.43851980589517
0.57100063419133	12.499134596467	-0.56842257570583
1.2565986295401	13.42724014175	-1.149557674079
1.4486633887383	12.69302170761	-0.31714242590465
6.65	-1.3	0
6.903739311401	-1.3	-1.0953527719967
6.3980205255852	-0.38130956989248	-0.5855507841991
7.2175457166608	-0.5710098692386	-0.51938212652516
3	7	-0.2857142857143
3.5055774955602	6.7395375676091	-1.4094768265058
2.383927159844	7.4535505157878	-1.0620490471275
1	4	-0.2857142857143
1	4	0
1.2222221827385	4.2954008280594	0
0.82345085295407	4.2815033897546	0
5.6	-1.3	0
5.790373644402	-0.65252487431205	-0.38521635467031
[...]
CELL_DATA 5483
SCALARS Coverage double 1
LOOKUP_TABLE default
1.5091947197995 0.75684805968446 1.4159571637695 1.5697437488482 1.4509583699086 0.89225451247281 1.1516648956323 0.68771680248421 1.1263195705564 0.22313657149316 1.8693139229403 1.6767142809957 1.5007848122835 0.72981816588696 1.2507353822848 1.8019708871768 1.003708746257 1.1582455278733 0.6424952149304 1.6596924483133 1.4249990926774 1.7110526803085 1.9071085819478 1.0889658319229 1.6080444397742 1.3963190049035 1.2315420980337 0.59241696677909 1.411569179605 1.6744348035736 1.5932897362512 1.6911811341957 1.2143914124592 1.8068611671251 1.4926304272299 1.7769443195293 -0.35945473600307 1.8116209464902 0.35794852669 1.7029368015377 0.62966047974496 1.3691329987559 1.3930237147535 1.4682488969721 1.3277445301941 0.89128235734729 1.8326278085525 1.1050723139724 0.96906592175608 0.58196732166472 0.69752165721258 1.2914831767007 1.3835811222214 1.5157708888433 1.6889715228542 0.97759893363711 1.4952576176869 1.928362573486 0.85944019176034 1.841684576927 1.5320859252898 0.71346836035569 1.3872118267372 1.5279887324897 0.82350343723731 1.6048283954862 1.1621549937397 0.66544156194451 1.7129254245572 1.5908266107732 0.84338999756608 1.0904393888913 1.813152160952 1.6950458552952 1.5447393607021 1.0337178705667 0.68802623315256 1.2885722381474 1.9382479661324 0.7108689806202 1.1631626845944 0.82548659342183 1.4874424605318 1.2051945064754 1.498287141398 1.0139283280703 0.6258087536569 1.7807184841842 1.7788249177275 1.5465081272242 1.1987173653126 1.3654166361266 1.2889577596997 1.2201039209732 1.4469571652418 1.6338028460672 1.5853243518763 0.97901149874952 1.6529708908655 1.7063121253602 1.2983147001414 1.7976313162446 0.99171552145741 1.5980546513979 1.1030119661264 1.569604882134 0.38551704925609 1.1604879274688 1.8380443689212 1.8928035551969 1.682542378603 1.2817942648001 1.4896166096127 1.5586105134639 1.1632721222391 0.74623763954804 1.0194133499516 1.0526216782658 1.5652150217788 1.215164996 0.96870236246091 1.6275076649349 1.2645845383067 0.44939912234066 1.327663906627 1.7870631414892 1.0743300714032 1.7973155873314 1.3344180599918 1.5559982780883 1.5069395076644 -0.16755175195236 1.0953556418549 1.438405944203 0.83194867515189 1.5992361592777 -0.35065494336885 1.3748044816057 1.3714280691438 1.868057508487 0.59791204760975 0.19677689025661 1.8027735396232 1.6958940303381 1.53858408111 1.4186303043908 0.87887525918597 0.80475641251939 0.95646603475438 0.58894852691111 0.43219576512344 1.8703075757809 0.81850412458956 1.1870988391717 1.4137295958486 1.6292690120111 1.524159554862 1.0539306735179 1.7326991798825 0.84433017106854 1.381421300609 0.75620757371553 1.030590216686 1.5940490848299 1.875231710262 1.6581709908597 0.60432713536321 1.8560472066632 1.4456931749134 1.7810900921004 1.5848825659021 1.1767081060646 1.3416741445823 1.850662328224 -0.012959422201367 1.8668842040526 1.9174752003553 1.776611017184 1.6871159754816 0.18888012884476 1.56061697671 0.42655423765852 1.1275627069686 -0.050262472788669 1.2226880481165 1.8842673955028 1.3984589017139 1.5780659495409 1.8293797872214 1.3367899219097 1.8777546947081 1.3377690732906 0.73346011874658 1.6098684897993 1.2998214028949 1.0872537804488 1.6458157457068 1.5483820460856 1.4061034517538 1.8561818937679 0.67011459021642 1.9577150702085 1.4763500761403 1.5129036790916 1.9497910985583 1.6909041401881 1.6329985427727 1.4857187088255 1.0949171043177 -0.40103705169893 1.3698739610817 1.079369488006 1.1855229750298 1.8978996892524 1.8655929170233 1.8852512579243 1.8133324306541 1.5906153607016 0.87069775280866 0.86367546956338 1.380972439544 1.7491084238522 0.57681576048378 1.8996389138654 0.75611940919521 1.6866785836593 1.5961916706908 0.89338957566985 1.9075933114977 1.2086417099388 0.91862112633019 0.88187896185558 -0.1078250926939 1.8724129886677 1.5177427747864 1.1841479868074 0.5703952780655 1.7604485639341 1.7323599328485 1.5519234887668 1.7664209951641 0.6973174142138 1.5799182581948 0.97945189732269 1.5902342116486 1.8483543843473 1.3415739993199 1.5379468495921 0.59375999333787 1.6176750803863 0.70172322364193 1.6235197867627 0.47978353885702 0.23049562183992 0.066672972595359 0.45973147888834 0.88768685700161 1.8720375018629 1.3225323024125 1.8702756666274 1.1111183282764 1.1128497036081 1.5361460328098 1.3582143221281 1.9172801147977 1.8252471166079 1.4659492494293 1.839239047929 1.5621236296116 0.78366524453257 1.8451676795579 1.894908663606 1.5334383046137 1.4338773542201 1.85290553739 1.5227437456228 1.8695282242092 1.5829265648188 1.6184798375412 1.7307484968448 1.6679430494846 1.9675816165321 1.4514502342908 0.54677846974469 0.51434978646164 1.2865568757021 0.98844542935442 1.5811784014895 1.6977094787868 1.3082398012982 1.5229262254282 1.8413318619344 1.6752064251352 0.64026096646849 1.4476691910042 1.7035909993724 0.73912855918087 0.40059656870151 0.86324911675116 0.50603158198523 0.46288501829965 1.5904961264542 1.3693904960193 1.0849606955462 0.82889439538535 1.1374620358867 1.6521196599042 1.3134199854368 1.5445410339755 1.1185433163562 0.74906300827227 1.5950040050875 1.29514829571 1.2413722988289 0.67099165527206 1.2113272676364 1.5314638120655 1.1050235288076 1.4576288142899 1.1877105704696 1.8329339215996 1.5954429971367 1.547253349657 1.4377736752287 1.9246202931454 1.2805475081017 1.6997983712068 1.5772337800444 0.47937440192544 -0.61177485853395 1.643891433381 1.2313705459505 0.77659681470997 1.5440233330974 1.5560934803715 1.8195171408403 1.9062659098468 1.0065510802648 -0.54778155934721 0.87626905468543 1.3960668300808 1.2073055329046 -0.22888682464742 1.0967397208199 1.0614502591225 1.4212180874965 0.94804627844572 1.6024487116789 1.4231733205761 1.2615439781051 1.5434238482884 1.7410430909492 1.7259931626764 0.63612216060504 1.8892030351374 1.0192266631519 0.17607664521271 1.3261315743627 1.6379627192186 0.53358986318137 1.3078936659334 1.3782385738039 0.76143370121429 1.3945624618201 1.7325796127955 1.4876348089981 0.90450604268136 1.7517799662066 1.6825645444517 1.2339978042869 1.3145332762656 0.98646686530543 1.4736463710056 0.30883815760257 0.61740603123941 1.1553463215696 1.2976270177377 1.5304525620383 0.7721730289471 0.49953696325086 1.8096016373974 1.872662845772 1.901811078368 1.6100850721089 1.3755928726599 1.8814836280489 1.8496582984906 0.592965815745 0.84867956050793 1.4998353325594 1.0061905528306 -0.20846898447178 1.6095933717429 1.4179170342891 1.3646156727751 1.5845288070337 1.6328584414615 1.4769368850719 1.4345683366196 1.5396742914686 1.0620775673397 0.82890747484624 1.0276534287558 1.6691612500339 1.9802841040632 1.2526516467539 1.3703854628767 1.7126357841247 1.8430001420623 1.2759116710636 1.5734312078769 1.5231734135684 0.73755550391934 1.8493437952533 1.4634358450884 1.4307538186463 0.94525023417311 1.5647693201356 1.8405922857896 -0.33794963797494 1.5979656082837 1.513164202114 0.55964538588662 1.4212001124461 1.3711459817364 1.0517839668132 0.21669306485763 0.18627138586848 1.5993892407744 0.32053244655373 1.690677734657 1.3683903609977 1.7519723210527 0.91579975947829 1.7456510152617 1.4514009844824 1.749133485078 1.7886714422854 1.4108896841562 1.201028984546 1.4305168145922 1.5673438300052 1.2913776126889 1.7728931031746 1.846408898485 1.5565080373095 1.1500504620674 1.2837418497394 1.1966982163473 1.2370766296797 0.95168818764012 0.69797043366966 1.4623549826266 1.5368440599526 1.8246071444253 1.4919583089955 1.8974242231298 1.475871200573 1.6954813904738 1.4836364313757 1.9017293159724 1.3277556674876 1.0133517220473 1.577289217571 1.9704985384655 1.577039596485 0.86850167822342 1.3507571706921 -0.21336848490264 1.8516788584841 0.50946047631677 1.8260455173172 1.4886554459457 0.2692833770705 1.5950475460459 1.3155093698801 1.0584086930719 1.4817435888909 1.6997425012381 1.8644107966345 1.4012612809573 1.5162499747533 1.8054749255537 1.6366792464247 1.3869145875235 0.71796020231722 1.6155824025264 1.5975125692898 1.5294716812393 0.66982957096642 0.58320183032793 1.372378587966 1.2344795529286 1.5091260798654 0.84804743938324 1.8496569195502 1.5992202941935 0.81747607956523 1.9634266202038 1.411928845694 1.0692148331583 0.63146234701748 0.84571571440281 1.0009235462972 0.5658391398687 1.7125726054307 1.6223740062572 0.0304616918085 1.3720958600404 1.1668767147066 1.4599321231754 1.3481619717341 1.5660387664968 1.5453909385706 1.8342239042032 1.0519273875257 1.6133936145109 0.78445525251814 1.0784389586382 1.3889242627842 1.621914655903 1.0993287083234 1.7947087741546 1.6287007521697 1.3197250948139 1.6126994871793 1.4405002158157 1.6709021743154 1.5745645724577 1.6319098759811 1.6062083912396 0.42279643870276 1.3257265766959 1.4415889057215 1.8394796415308 0.76751412319098 1.798113439569 0.96888026346552 0.91327303385014 1.3528041110382 1.8095381569182 0.89801073952325 -0.65448671837905 1.7030902422826 1.567841124481 1.2658284630799 1.6997342001272 1.491870014482 0.66934511228588 0.83956761655761 1.8724593278644 0.94992548604097 1.5894748456992 0.84266177513159 0.71110795729811 1.3613303114423 0.57005762933558 1.5605819849668 1.6279232167371 1.5333676992664 0.12848051549397 1.1350472902097 1.7046171400758 1.2215561991813 1.5535729664103 1.43619894134 1.4058755832345 1.4344298833152 1.0855586584271 1.6015097293516 1.582815449607 1.0104580314896 1.0784677037735 0.28805511108565 1.9719728847287 0.95655848142606 0.34209646200013 1.7397841751757 1.3301037569536 1.6295300559869 1.7092909057227 1.6838996142784 0.65518841311282 0.8471580685063 1.6909082113741 1.3920242934483 1.6335218424827 1.1360914603937 1.5126472325944 0.86661870240029 1.0540446475604 0.87650909339456 1.5177550286597 1.2115331074427 0.69705892206572 1.8929129101788 1.6663041287787 -0.54449763232821 0.14033857248306 0.9021079520798 1.7116418319268 1.8825891560633 1.5648572039417 1.8531021680714 1.1982371334277 1.4659086556543 0.62503923372854 1.6849872288033 0.40923757510669 1.9742243600616 1.1285909419778 1.6130462724593 0.89934604882368 1.6208037107041 1.4737988314204 1.3507771814759 1.4349037488442 0.41998990028853 1.8361775614357 1.1205678495727 1.4975297969352 0.47841570512902 1.4866464551959 1.5925433375429 0.96501521815719 1.3740362564452 0.90363786737753 1.6887117073552 1.1095213709767 1.4690832068822 1.3768960817373 1.2739995784989 1.8715955725442 0.75208051657541 0.44074441016474 -0.5155981201237 1.7901960057142 1.1467378616717 1.0532116624299 0.759123977309 1.8341381703824 -0.18518754363957 1.6363106751764 1.6002816802273 1.1171798044747 1.0247939147506 1.7690684071627 1.8897495248979 1.4719842390224 1.5490425049426 1.7955180362264 1.6063794966166 1.863149261676 0.7296731093297 1.575861552732 1.8466482452999 2.0503267207739 0.74480638726827 1.4348231309915 1.4036016328765 1.4719848773541 1.6229833036058 1.6146180344437 0.64418957647576 1.7124281579053 0.73940364541735 1.1448093658836 1.475039122287 1.9355088592502 1.1864092248713 1.4122357548729 0.14153433237073 1.6753791134856 1.6631563150595 1.1544073673486 0.28570017247372 1.3997649442881 0.73560883559634 1.6440119458226 1.2235749495752 1.4741364072266 -0.32363607821333 1.5730964451278 0.65434506238965 0.78413946551672 1.8546787820687 1.2747757185084 1.3696218382937 1.5254119912815 0.48570090802422 1.8757466770252 1.7897780772733 1.5268211707484 1.8370231590904 0.67261973587361 1.6427837625859 1.6185791907728 1.5349214671882 1.0413086880762 1.7995623779777 0.51465119926697 1.276811205673 1.396098187662 1.1976444853901 0.81101105351647 1.7748645187678 1.5496625568077 1.3584071545497 1.3860568186367 0.72756677655464 1.3988229736561 -0.41299060866605 1.6025300069467 1.013463704078 -0.24512069513523 0.27347110678237 1.5287733920107 1.8315040418974 1.3330182507162 1.3862542935548 1.9019647595153 1.5435806519098 1.0947027303243 1.6286542265355 0.93508081803299 1.214060062583 1.497951118881 0.97677721766628 0.36338219743574 1.6830644696614 1.4483973466214 1.8615970674181 0.78276830343642 1.6845179574693 1.5490613293398 1.4879599733373 1.572965689615 1.5582381605503 0.23507119003375 1.1116012177669 1.4001593440612 1.0520687264556 1.2406333638516 1.1435074426121 1.6784574943536 1.0837219459099 1.2614544847179 1.4705809211666 1.8158755581992 1.7573413821023 1.7456498823036 0.65648637565111 1.8726798777227 1.4728211794961 0.7778045025809 1.1924530446556 1.5001301985362 1.6273810523093 1.1275479703775 0.8394194063026 1.4449874906714 1.6240713200502 1.9339535444445 1.4346966852298 1.3101708185828 0.81949060273109 1.4171678211821 1.590296503484 1.5925342854378 1.7711475176926 1.438181144632 1.6140400388513 1.1337356926924 1.5456511181594 1.6071503842184 0.8224227856646 1.9150860457162 1.401294708479 0.59126871520088 1.6008792466992 0.91673055323971 1.5395056688706 1.2393449318582 1.7341065459705 1.2028931782001 1.223183789471 1.5613976326573 1.1622327327978 1.6713443128985 1.8614248627252 1.3324300194874 1.6545462415449 1.4381840611604 0.49052124552959 1.1439676993775 1.7947304890738 1.7470803425069 0.26663810520531 1.6023106332273 -0.54096957324416 1.4083867847029 1.7378403102178 1.3056706631111 0.66035294239496 1.7740878370845 -0.66788552238176 1.7721933747997 1.3305631591348 1.4332982423781 0.74874110921477 1.1809639264189 1.3920599550393 1.0686155164288 1.4952327038229 1.0805772240556 1.7819200703571 0.77776089930381 1.4307457769784 1.5067514191742 1.2539023823015 1.3581631814533 1.5958939789833 1.5909710608025 1.4585789846326 1.1152219871574 0.62072548554444 0.75409997546729 0.66252805364427 1.5259110839805 1.5806615201644 1.5936660239128 1.0721115916775 1.6736704270049 1.6250591753945 1.1649226385472 1.5931925444893 1.4248926143037 1.6117234411267 0.53233330851888 0.97253907804531 1.6111460103085 1.2727400551125 0.9853409118547 1.3471623743711 1.363263868733 1.059387495006 1.2755865148327 1.5504202870083 1.53101362584 1.2142194636069 1.8539113916128 1.8200612050281 1.0943127000165 1.5343156634205 0.72975520013716 1.3253174587273 0.66019699328978 1.6432260099748 -0.19052562638778 0.74647544247957 1.5426620669012 -0.24729634529576 1.7018246626848 0.72034514512616 1.2802256307335 1.331136068579 1.4381345472924 0.81699785320377 1.4142415037826 0.49675914857624 1.257353374068 1.5765103691666 1.2724292713854 1.5736799254009 1.5698794824163 0.97485802875653 0.840522999717 0.53622326253211 0.78445853490502 0.63739197479918 1.8792321854869 0.45853997894961 0.92766990871337 1.5338283498435 1.2685191267302 1.6359077214423 1.8273466626215 1.64262487583 1.6334944530274 1.2501971212906 1.4034470770809 1.5226821512389 1.5406683602901 1.7037319050378 0.56779656007471 1.5886373377427 1.6049173818591 1.1778405739731 1.1681135955852 1.6662280386499 1.9459110398971 1.5898685669474 1.7293009026745 0.66417727853502 1.2387168147279 1.8088127681689 1.588070184615 1.310000634804 1.738222839085 1.0410021736436 1.3805872555153 0.45501846458222 1.6949617350334 1.2809512041703 0.70599751315316 1.4283812516078 1.5340349917994 1.4206383444133 -0.14269667152367 1.283704310146 1.5864462652361 1.9003128639523 0.34863772114762 1.7779670120737 0.86063532435178 0.22707535253045 1.1804816293448 -0.44967663393201 1.7248900835536 1.9491316276281 1.4397470876253 1.0141454621792 1.5064166835069 1.8040157864866 0.43344588900992 1.588748995885 1.5032627432509 0.22985948349873 1.4773948382141 1.3566754266595 1.6471097575075 0.95812914473472 0.53622500237388 1.4350321699911 0.64608044721319 1.2670421162551 1.8823585442217 1.3613865858585 1.4932941073275 1.3583143753334 1.6363595862534 0.36990806297594 0.41504703502996 0.98637869820775 2.0313323731025 1.1431289059278 0.62708815904049 1.5177792009573 1.5841834870566 1.0670429289936 1.3470165448805 1.2472969750386 1.3809874494005 1.6041794720961 1.4668257978868 0.75804215907859 1.2805465714155 1.3431323881476 1.6351554122044 1.9037333110036 0.61830328603922 0.9884869084551 0.50585817049093 1.5184011913823 1.3146840902796 0.84937988606774 0.99467964119478 1.6848964555768 0.52175289060348 1.1946133143454 1.0694277615296 1.2896031643689 1.7550731814281 1.2371040139095 1.1260953366919 1.8024969798022 1.8900507993683 1.5553952252673 1.7433570490824 1.6331092954282 1.2543909201139 0.78621527963 0.76466181542062 1.4590337062977 1.0802984693215 1.189218780227 1.4980878782549 0.76481384451671 1.662251306003 -0.12474978063792 1.799793004 1.611077357405 1.3576914549371 0.56553730868808 0.69479684275605 1.7791769367671 -0.01545870960373 1.1620223011178 1.3478300712748 0.61190817147314 1.1517872968348 1.9139718661384 1.7863921578202 1.5302678353014 0.68228851774565 1.7385495181271 1.6665172321997 0.36816299612594 0.93364646846647 1.6493078853416 1.0197340368686 1.5466211361261 1.5431067371927 0.93470086374438 1.3703997684793 1.2479157032553 0.78354068745647 0.64765903224876 0.64324960615101 1.7396280665284 1.8585274376296 2.476032586131 1.5862901177362 0.91739863000321 1.5972367164054 1.4561990684164 0.96015016053683 1.4825361560436 1.7153315315381 0.52810458447631 1.7065839214695 0.89124797523279 1.750812203129 1.6089423014271 0.75869182050255 1.1619261750483 1.518103731156 1.4152994068488 1.2441120477313 0.90918872417562 1.6592736230927 1.8211437743085 0.85697837981077 1.7130644023323 1.7577545183933 0.50571366757106 1.9773090483951 1.4188342903518 1.1911642160764 1.1721023013846 1.1039320369806 1.5944386023792 1.4737806338293 1.7146655014254 0.94069657187959 1.7653563022729 1.3760821726269 1.4256883386804 1.3380801865905 1.0488293442102 0.67102784983287 1.9036680328181 1.8777837285351 1.4306378606646 1.9271812179929 1.0714550494865 1.0352579643549 1.5311473421299 1.5045933254628 1.3408408787597 1.3625741201831 1.5099716283326 1.0486133107219 1.8401782261527 1.8634764560455 1.4076518025484 1.0478779125453 0.80270148919703 1.4135434884726 1.2562838120942 0.31690911051165 1.5652075273961 1.7212108125566 1.2866832001264 1.8306506141274 1.3405741381471 1.0927354475202 1.8980342958751 1.54858325352 0.74010984269823 0.73680704874266 1.2970773615295 1.8015127435016 1.1873121810325 1.0980625588485 1.612443067694 1.3167783693652 1.730777760874 1.6082288677859 1.2288166716819 1.3569928540252 1.7957751188581 0.90519560568047 1.5769701753868 1.6494825681684 1.8863259107103 1.485009565443 1.2504724878975 1.7828510197362 1.7634303712962 1.8095812286063 1.5155261456987 1.4645046672198 1.5142866986446 1.6098028258926 1.4848080188595 0.94366142369817 0.070596772633545 0.88991911611715 0.79946778696562 0.7825140046594 1.5637187401819 1.302325273516 1.7491379732368 1.2474923120037 1.533520819147 1.2836453485105 0.60515231720436 1.7625257706468 1.5543139857005 1.6407312585787 -0.34597155785808 1.8564263369942 1.6203685924348 1.0462577550871 1.8671210515341 1.1943068109563 1.2066998057359 1.9134585454784 1.3052318127007 0.62726048729794 1.4555460168667 1.2037629795063 1.1058675521998 1.7969339304352 0.95589953527456 1.6625563555616 1.3314458096456 1.3294796681203 1.0379207912347 1.7728668455591 0.25967384122056 0.6970604282481 -0.49848643059831 1.3941168128543 1.4577490528518 0.79937401674872 1.0289398507622 1.5812649625684 1.7772181833284 1.4214402488919 1.6251942461584 0.89205398741548 0.91817766078658 1.854735955722 1.7393915502614 1.5017650532201 1.6069702731639 1.4875472951945 1.4243919143061 0.60467130183819 1.3881818417787 1.6805141523257 -0.13273054230119 1.3276535242182 1.8906489603343 1.4309636065232 1.4253225809244 1.2539161995861 0.89467816894309 0.45812101712551 1.5329092695527 0.81992647109813 1.3639838748748 1.4119417787023 1.5565361216733 1.6303114444402 1.7731434431129 1.7937641392392 0.34734360327494 1.474419999865 1.1186980714231 0.43159780612449 1.8221044959864 -0.45916850777594 0.58083738212386 1.3165346717399 1.6586212210788 1.0095140210113 1.4981454507554 0.57771601332691 1.4237508876826 1.0393445505963 1.2663279715829 0.97704895512487 1.0397403544703 1.9049948717675 1.4802545661778 0.73223585773354 -0.043945635776592 1.0584262878311 1.3351036202745 1.5566454950058 1.4530171266356 0.97161480680562 1.8511286749837 1.3484061612035 1.5149829968088 1.4536409220423 0.7859715647102 1.5738960290523 1.5388850522049 1.9642378816463