# vtk DataFile Version 3.0
d-3__ created by libgimli-v1.5.0-1-g5991b6ac
ASCII
DATASET UNSTRUCTURED_GRID
POINTS 1483 double
3.3802423101098	12.435481574566	-0.57001420684378
3	12	-0.2857142857143
3.4959596309848	11.998298039034	0
3.2490070092203	12.168560129388	0
6.0395510135596	13.367156253372	-1.2757999763971
6.5930002103947	12.023472734859	-1.2922192071349
5.4998599382803	12.552571297657	-0.59337769664261
5.29662096318	11.932351047571	-1.5392209346082
5.6153020589615	9.1440579133635	-1.0774777831171
5.7237069713611	8.5589744845549	-0.30827017969781
5	9	-0.2857142857143
5.3151026533923	8.4249591108801	-0.38240156963578
2.3178923476779	4.1926464382665	0
2.5373292327812	4.4716333182052	-0.48281884804687
2.3342974478463	4.0018571812202	-0.30572640106363
1.9994701911036	4.4258543307655	0
4.8968211033092	12.507755029533	0
5	12	-0.2857142857143
5.2932790228536	12.494788035524	0
0	0	-0.2857142857143
0.54768630893449	0.55020446432687	-0.60775225926193
-0.16846798780902	-0.24002860812406	-0.65332445545953
-0.28063481777066	0.41453578455018	-0.44890469943706
7.7	3.575	0
7.3102059000399	3.7470939102263	0
7.7	3.6732286664853	-0.53772532608145
7.3176226410905	3.2857280588852	0
-0.7	-0.10798167686939	-0.47517111104905
-0.7	-0.57707899562378	-1.1376990549501
-0.7	-0.61986630133594	-0.43486724047509
6.3962361866998	10.611290418241	-1.3182185489848
6.565939673393	9.5694509864085	-0.57379796778735
7.1295911592009	10.496363016677	-0.48219980545192
6.3839624611364	10.341052129245	-0.35036617584397
7.7	14.3	-2.5
6.7623683783591	12.987112326146	-2.233077027779
7.7	13.059020885286	-3.3539705522597
7.7	13.327367479896	-2.129915020979
1	6	0
1	6	-0.2857142857143
0.93236760237426	6.49128333619	0
1.3454573625665	6.353105459937	0
2	5	-0.2857142857143
2.1684298754346	4.7403793023811	0
3.0226729813355	8.4836106439452	0
2.5164096947204	8.910651700233	-0.41109082170818
3.4071201441719	8.4167381876838	-0.59109415332551
2.5374808587914	8.1383747261781	-0.35604109466584
6.2778911301719	14.3	-0.61136458754231
6.2225356773765	13.691717475418	0
6.5208076177088	13.495118289851	-0.49928801204061
6.7358646795693	14.3	-0.39005656748015
5.7965188279432	13.281940723964	0
5.5320359851605	12.925291312368	0
5.353113789845	13.264183036004	0
5.5919457801018	13.101154188917	-0.33537516396337
7	10	-0.2857142857143
7	10	0
6.5010306427949	10.010760669106	0
6.8196744207924	9.5136576917357	0
7.7	1.1375	0
7.7	1.6430719769933	-0.42557297445049
7.1939383721229	1.4724531054162	0
7.7	1.625	0
6.3572581294301	1.4772201134971	-0.96507376287322
6.5574763981385	0.84898833643366	-0.48332647821142
6.7774291048203	1.7003141153393	-0.4123635555875
6.1433933962903	1.4220674799247	-0.28622251631329
-0.7	9.1984657118068	-1.9278839451739
0.33291529395702	8.3305676904572	-1.2970017952003
-0.7	8.1442617177323	-1.0898260028896
-0.7	7.644268062563	-2.0766032868031
4.508194357046	8.6258793740749	-0.60770874662543
5.0095189690676	8.5009469809039	0
4.7609249278557	8.7686419230913	0
6.2306672701993	2.67753718	0
6.6360398560532	2.4670661479797	-0.44686919005428
6.4910302172834	2.4939022421641	0
6.1550873755842	2.4572757142813	-0.33684154297057
1	1	0
1	1	-0.2857142857143
1.4901571161019	0.99574153349402	0
1.1736530561382	0.72346383359363	0
2	4	-0.2857142857143
2	4	0
1.6440539242474	4.1532454240512	0
7.7	6.9501255673919	-0.74418826283982
7	7	-0.2857142857143
6.7521552376889	6.497772044976	-0.66059363300197
7.7	6.3887218416049	-0.46884913673037
5.9482896260331	7.5800048202495	0
6	8	-0.2857142857143
6.3095291646476	7.6896230263426	0
6.1432247512519	7.3579252770212	-0.41388970597853
3.501272057481	12.437082442362	0
3.3297831413816	12.805427976196	0
3.6823393063421	12.851671876304	0
1.3671388209093	10.633374397873	-0.4152980605108
0.95248763025238	9.835503527633	-1.7808732395437
2.3518021577517	10.495200039554	-0.50930668321109
1.5373497846005	10.021005779616	-0.41781002197689
6.2054585007625	14.3	-1.3884356875417
6.9442913034148	14.3	-0.89278753613404
1	8	-0.2857142857143
0.54167473049383	7.7707286368021	-0.37916050195481
0.44975345341211	8.3808810318019	-0.31136669048163
1.022076618805	8.4121844676845	-0.45670843222423
0.89173681858685	4.6122796653579	0
1	5	-0.2857142857143
1.2386083631299	4.6841794176855	0
1.3923592539172	4.7130963353432	-0.25978315417498
6.4242299347383	5.6840176993625	-0.35514079575845
6	5	-0.2857142857143
6.3424541740313	5.2754910113697	0
6.0447933133998	5.5049876953384	0
5	2	0
5	2	-0.2857142857143
5.5190673049038	1.9208326821789	0
5.2306444928855	1.6547875838902	0
5	13	-0.2857142857143
5.257359886178	13.540476325965	-0.63012071696907
0	6	0
0	6	-0.2857142857143
0.066757795936057	6.5008369551487	0
0.29243888553297	6.1743316976873	0
7	9	-0.2857142857143
6.5033796411008	8.9981073418213	0
6.5607922823332	8.4440251373986	-0.63122800754088
6.811726958696	8.7028726276344	0
7	5	0
7	5	-0.2857142857143
6.4986646723997	4.9192017057136	0
6.7141996182955	5.3303468264748	0
7.7	9.5988491781319	-7.4736716195817
3.1507199964473	10.394874003632	-10
4.8663216648816	7.3792654266676	-10
5.1015502438684	11.553440122249	-6.405163284031
7	7	0
6.9589015254993	7.4884372736447	0
6.761634669635	7.2408783569561	0
6.0574437090791	0.20878539066113	-1.8779478182653
4.9838025543493	-1.3	-2.1179854334408
6.0308685444023	-1.3	-3.5425074203685
6.440522236286	-1.3	-2.0103523001383
3	2	0
3	2	-0.2857142857143
3.0105846506	1.4855923993349	0
2.6480485575569	1.6700894103009	0
5.0527203000088	13.535479310798	-1.5373151531841
5.0246691847863	14.3	-1.036131499603
4.1300067609037	14.3	-1.2024507502556
4.4744197407865	13.547407617085	-0.63586628370479
2.5813517996865	9.6286485974984	-1.0236151505326
2.2955236368793	9.5881134365907	-0.29154811067367
3	10	-0.2857142857143
6.4248505083522	12.522044346884	-0.42559946143008
6.465073985677	12.51782996062	0
6.1644652963082	12.36965297069	0
6.3832046574853	12.135664356038	0
2.9908655166747	12.498069465114	0
1.984703560175	7.5906357794687	-0.50777967523709
1.0508409188237	7.354634772545	-0.95680796450018
1.4515039911109	6.5829264157992	-0.56173008002516
1.3866216751759	7.5118935788728	-0.35488362790971
2.45	14.3	0
2.2168273415577	13.627179222019	0
2.4554693735383	13.497784276817	-0.39727655195048
3.032551925238	13.762466584345	0
6	11	-0.2857142857143
6	11	0
6.4843452951013	10.966514281357	0
6.2440599782187	11.234710090977	0
5.5	-0.5576923076923	0
5.247952850371	-0.29481663567353	0
5.5452342683804	-0.096294524539033	-0.49623355575102
5.1016398375367	-0.61489919294387	-0.38960315167385
2.3232496140345	4.0110297188843	-1.3835068702753
1.6586320571652	5.8268322896535	-1.5213554090482
0.71002746520551	3.976198472286	-1.505315421377
1.3296414347056	4.9089994064226	-0.82629172929831
5.6	14.3	0
4.6510156691765	14.3	-0.56274723813486
-0.090060726359069	5.5363033123106	-0.44581840212762
0	5	-0.2857142857143
-0.38456492153953	5.1805342841446	0
-0.7	5.0205501441189	-0.32507149572551
3	13	-0.2857142857143
5.1848675157348	3.2965660830064	0
5.4046165570399	2.9501485228537	-0.43988698776777
5.486289771732	3.4981838484395	0
5.4682750147717	3.0660382780841	0
0	8	0
0	8	-0.2857142857143
0.5178658825659	8.020802151125	0
0.25864598874121	7.6639427314904	0
6.7098208972434	7.2950601162224	-1.3269022195366
7.7	7.949747446039	-0.91833665053736
7.1577047253729	7.4844276204668	-0.64272934527953
4.5892004575887	3.5369189576522	-0.55981654583505
4.4420188491858	3.4660037233365	0
4.711527897636	3.7375259681419	0
4.3494632088922	3.8023533541114	0
4	6	-0.2857142857143
4	6	0
3.9913416390327	5.4988534517732	0
4.5093195747582	5.724109532591	0
1.4	14.3	0
1.5	13.55769230769	0
0.89284349994875	13.714781914708	0
1.2292962491126	13.670420041977	-0.37788942865261
4	9	-0.2857142857143
4	9	0
4.5502440226935	9.051086551406	0
4.2963154051231	9.3907765114078	0
4.5321110402369	7.5028925212181	-0.60552533206341
3.5085861108931	7.3893844432383	-0.64873189634878
4.0050480592533	7.4977657988521	0
4	8	-0.2857142857143
5.8961095330637	-1.3	-1.0125722125019
4.8982045728458	-1.3	-0.82217786726149
5.2296982103621	-0.31621891710017	-1.0679345669244
4.9010483556055	1.478997710586	0
4.5631533182214	1.9074133665015	-0.41231302454656
5.0320642355688	1.4518180616801	-0.36509190625555
3.5357179442866	0.46434418042464	-0.60031716899974
3.9407498163335	-0.4411178910574	-1.1087857494349
3.2826824657074	-0.47747544834602	-0.50866572047373
2.802260468126	-0.22902113419037	-1.4542342115515
1	13	0
1	13	-0.2857142857143
1.1191337005982	13.329221525091	0
1.4884720276527	13.02962190928	0
-0.21681247778723	8.5792000107362	0
-0.35118339610893	9.0917088673227	0
-0.7	9.0968147603684	-0.35256881313688
-0.7	8.9375	0
0.51662331659314	-0.40156299802931	-0.67799391089861
0.13474046208011	-1.3	-0.85683826964205
-0.16941603187845	-0.57512411281067	-1.4019543009948
6	13	-0.2857142857143
6	13	0
5.8068477026831	12.499749736815	0
6.1890713266052	12.67695534294	0
2.5984255358496	5.4578875982232	-0.67264342113488
2.2172109403706	5.4325217687574	0
2.4824672258873	4.9705265694472	0
2.6598112065826	5.3330483814808	0
-0.7	0.5146532048839	-0.51418317722913
-0.7	1.0492756199945	-0.88024243711367
-0.37698118088761	0.89350663208132	-0.33360419980628
-0.25096134668857	0.95145340086689	-0.90448711690516
6	2	-0.2857142857143
5.4002158317804	1.7678073061348	-0.50898482673054
5.8183999242367	2.5164331321023	-1.0840550371572
-0.13917028340788	5.5182991349521	0
0.31578338747353	5.7567158690792	0
6	12	0
6	12	-0.2857142857143
5.513035862904	11.994753403328	0
1.5285536174902	4.2362319729344	-0.43851980589517
0.57100063419133	12.499134596467	-0.56842257570583
1.2565986295401	13.42724014175	-1.149557674079
1.4486633887383	12.69302170761	-0.31714242590465
6.65	-1.3	0
6.903739311401	-1.3	-1.0953527719967
6.3980205255852	-0.38130956989248	-0.5855507841991
7.2175457166608	-0.5710098692386	-0.51938212652516
3	7	-0.2857142857143
3.5055774955602	6.7395375676091	-1.4094768265058
2.383927159844	7.4535505157878	-1.0620490471275
1	4	-0.2857142857143
1	4	0
1.2222221827385	4.2954008280594	0
0.82345085295407	4.2815033897546	0
5.6	-1.3	0
5.790373644402	-0.65252487431205	-0.38521635467031
[...]
CELL_DATA 5483
SCALARS Coverage double 1
LOOKUP_TABLE default
1.5206049201607 0.76302182704355 1.4207408831615 1.5867846804201 1.4575571812809 0.89641339777543 1.1581434520964 0.68802121777429 1.1291735338877 0.22848221011981 1.8774566834739 1.687851705993 1.5144992217111 0.73420370687016 1.2579176070912 1.803159102355 1.0098226384409 1.1642421303665 0.64140540519994 1.6672682860364 1.4346577496599 1.7238690953227 1.9221207098678 1.0936967206517 1.610384536659 1.4067361119369 1.2522987712411 0.5969262826732 1.4193100948954 1.6841332728592 1.5915755684938 1.7301193713012 1.2217271821713 1.8127814417979 1.4953429635357 1.7819904997029 -0.35282694495351 1.8141429476577 0.35734587144781 1.7451387724688 0.63662268148037 1.3860802788141 1.3986791499904 1.4794754457987 1.335020073947 0.89865080788127 1.8384067936198 1.1171972089898 0.97696652199079 0.5871787036481 0.70363150287794 1.2989462571699 1.3936939428651 1.5360029577866 1.7246350288855 0.98185966698294 1.5371751798877 1.9277107739946 0.86375570314456 1.8527221530231 1.542104761257 0.71786048115439 1.4236295734626 1.5394793991762 0.82837729946843 1.6101614821627 1.1955803464367 0.66552607810519 1.7183054783382 1.6019088340927 0.84832220765693 1.1014062435096 1.8145838372924 1.7018163460258 1.5601279766194 1.0402066882889 0.69699992932873 1.2976158689188 1.9502761008353 0.71884006227384 1.1750261962437 0.83175695770858 1.5124443694734 1.2209411473658 1.5125864494113 1.01541661288 0.63300911947222 1.8241138301081 1.7823449063545 1.5649925930972 1.2089834559913 1.4338653517944 1.2937162581505 1.2281966179502 1.4707650282273 1.6371022543344 1.6005098394096 0.98552856565276 1.6559509704799 1.7136338038503 1.3109223127655 1.8096362860961 0.99237393129642 1.6060361921676 1.1570228566723 1.579084234821 0.39320283279492 1.1636472544979 1.8397489837145 1.9172300748295 1.7612517965355 1.2978154084974 1.491267936724 1.5586700656017 1.1720933103127 0.75368789323605 1.0253428816424 1.0603027327045 1.5788195911223 1.2186526710514 0.97651698394425 1.6306051761411 1.2677488346624 0.45635124908748 1.3245853499219 1.793374304548 1.0823159474141 1.8069750519305 1.3431413392984 1.558271365748 1.5183416038911 -0.16831809234034 1.1052686989345 1.4384153392834 0.83735851207086 1.6071428762919 -0.34630903287168 1.3845482897339 1.3832407353134 1.8787201954228 0.60536706065545 0.19400864705735 1.8055383497208 1.701244938451 1.5454997195633 1.4339292654572 0.89926872790628 0.81670345042109 0.97598461411204 0.59155000992413 0.44063058405607 1.8745182512641 0.81639968535933 1.2215410589171 1.4168986888383 1.6470696824376 1.5277293082276 1.0621057470483 1.7415925031566 0.85279675990984 1.4162621393675 0.79302177823306 1.0314262660886 1.6027571145333 1.8867720010324 1.6698835615924 0.60812540081338 1.8665599999891 1.4597359489724 1.79677066489 1.6014175271592 1.1900874795944 1.335492265125 1.857207621248 -0.0080086999754858 1.8829941016069 1.9270684234762 1.7842234698991 1.6935161111297 0.19395503928069 1.5696114320609 0.41942135750344 1.1357882354281 -0.056109602966354 1.231497940707 1.9105407929771 1.4113838884166 1.5823991677703 1.841544667058 1.3461413050815 1.884924462012 1.3465133282482 0.73510789534681 1.6229678991709 1.3057416810346 1.0920719992075 1.6566127766914 1.5533018615682 1.4181554368489 1.8696010229327 0.67080759624491 1.9590557658663 1.5194529871657 1.5164779205656 1.9599640971639 1.6994328287658 1.6787151243382 1.4883080560546 1.0990783996125 -0.40231468023581 1.3898848224929 1.0912055871256 1.1943498949008 1.9073084566555 1.8799324898718 1.8934322753601 1.8285390069971 1.6035355405723 0.87680436141182 0.87017932989222 1.3949165066794 1.7524666784812 0.57250544965845 1.9095221276196 0.76232206260823 1.7142548741485 1.6080473872305 0.90042764590318 1.9264738664526 1.2187382951997 0.92545521291858 0.88724715936185 -0.11181452689711 1.8780177627744 1.5164048808358 1.1917959488103 0.57082544879681 1.7692225647977 1.7828116814772 1.5571278876585 1.7826108326778 0.70220328445569 1.5983312308241 0.98563866308044 1.5957443982291 1.8593249491892 1.3657638562897 1.5486521652262 0.60256808773443 1.6223868078658 0.70988924785505 1.656875115472 0.4768343222488 0.23572779441942 0.067470159656932 0.45929663792208 0.8936788292998 1.8834006042723 1.3290456967112 1.8873199719986 1.1137063217488 1.1092600851712 1.5995621259013 1.3668362547825 1.9215486137432 1.844231339109 1.469914698834 1.8606700454888 1.5737329461161 0.78919626489329 1.8673786021168 1.9088264471778 1.5599753884669 1.4391226199718 1.8670221391363 1.5541059585136 1.874057944662 1.599866192627 1.6209904043519 1.7384996737311 1.6705347770846 1.9722075415635 1.4547078839847 0.55097491019234 0.51458008099039 1.296829800992 0.99357106302412 1.6045682766792 1.7479302581819 1.3173900319183 1.5450673400076 1.8571695275762 1.7071672816291 0.64475372460084 1.5080400193671 1.7101489489377 0.7477209491463 0.38588947074676 0.86701955698436 0.50541908224982 0.46880194326144 1.5992601424614 1.4053052322929 1.0810080894032 0.83303867460289 1.1415655729234 1.6626698320074 1.3229782180357 1.5519808077591 1.1290544091852 0.75353098593642 1.6043265894723 1.3041937582693 1.2648967234482 0.67852820077965 1.2173196657683 1.540457788907 1.1115332393171 1.4609385217789 1.2088747477946 1.8387694544033 1.6197318150984 1.5516427810912 1.4407621971102 1.931788002534 1.2840970487657 1.7109507201131 1.5888906707175 0.48536706428016 -0.61896509835226 1.6492674007396 1.2395456272142 0.77830305586134 1.5655507105479 1.5561518997607 1.8315972383669 1.915145126628 1.0075425425977 -0.53826796626694 0.88099481192293 1.4217738030155 1.2374975125389 -0.23326258997465 1.0960514886637 1.0694524788757 1.4375181003007 0.94840439156572 1.6029359913519 1.4353133886386 1.2650525195786 1.5538455379238 1.747789501756 1.7694936552274 0.64487577081696 1.8980966086655 1.0247139903041 0.16870991347482 1.3315812544331 1.6939862222946 0.5269138968454 1.3160953743979 1.3894220753371 0.76236786805866 1.3997435183659 1.7503657931055 1.4908012384288 0.90919819279469 1.7599214467307 1.6920568284025 1.293816540389 1.3302214221494 0.99381639041377 1.5222048368438 0.3073120402942 0.61722393069975 1.1625993770498 1.3053139430435 1.5419001599653 0.77505739000389 0.48748575028072 1.8222183899204 1.8913825880964 1.9164847582032 1.6221493173003 1.3773538344961 1.8898000477245 1.8538022807517 0.59790572298701 0.85788124209911 1.5222737162814 1.0143354785324 -0.20525011938078 1.620204928654 1.4396840883941 1.4040340914 1.5999675632169 1.6405688087421 1.4906999353192 1.5038597513707 1.5685530617931 1.111219569389 0.83688936006972 1.0436259278125 1.7126305930434 1.9852662334736 1.2575992004265 1.373024476342 1.7259228659969 1.8535882052553 1.2938039387399 1.5806666639289 1.5285888523829 0.74404895503006 1.8589672388545 1.4720894468278 1.4524363398123 0.99320630516053 1.5789115811475 1.8511668839948 -0.34024013160526 1.606055774305 1.5287695395282 0.5703718992567 1.4296558761872 1.3825839697478 1.0575090239122 0.22203482237514 0.18548017319342 1.6170123157131 0.32159854877898 1.7146813244256 1.3697154986701 1.7975543449158 0.91985146062405 1.7569937138885 1.4747362050706 1.7544585334758 1.8129879317123 1.416687194122 1.2108048188971 1.4409502155429 1.5860861186135 1.2946493165158 1.7731168646036 1.8530012471298 1.572846458618 1.1598839824612 1.2940926294541 1.2059111135794 1.2447557808071 0.9772025130815 0.69982485909379 1.4685594933765 1.5417529269182 1.8786977835049 1.4962488486122 1.903835481553 1.4838125343727 1.70178823784 1.5041374154192 1.9163593633096 1.3332844711409 1.0199250374352 1.6061176467301 1.978340253051 1.5811486314106 0.88987500758118 1.3569614934551 -0.20298122233794 1.8593031526529 0.5167433075666 1.8356324408353 1.4983308876925 0.26723767954453 1.5955966957122 1.3214558646684 1.0683225794679 1.4946174757871 1.7153060903045 1.8783883814124 1.4305114065696 1.5279949185169 1.8217933315489 1.6495383390576 1.3889433467793 0.72495451330642 1.6282812929076 1.601108208979 1.5463662391528 0.67391419328607 0.5753817459165 1.4179346957245 1.259167299887 1.5255595196461 0.85240364759358 1.8624582760008 1.6755209614072 0.81818228231757 1.9705484553954 1.4249373012189 1.0773326053743 0.63742596753747 0.85426774239466 1.0102864957083 0.5662477700682 1.7249008116139 1.6277008656329 0.036342592146676 1.3708876289467 1.1733241054034 1.4686760783811 1.360237353543 1.5720887242484 1.5501635420869 1.8380839602623 1.0607367710307 1.6207799435308 0.79197087343137 1.0861927374951 1.3960936040165 1.631902482286 1.107549867871 1.797587584316 1.638678757456 1.33950924856 1.614699740998 1.4453866289926 1.6781608760698 1.5839969820998 1.6394075301767 1.6114337763596 0.42911203730846 1.3305264441994 1.4468385988826 1.8501729130902 0.76770413714721 1.8245099585271 0.98383027697672 0.91767042346795 1.3637593513673 1.8224623718314 0.9031427260022 -0.64775637960573 1.7463071925866 1.5785741009124 1.2762983869809 1.702532512221 1.5000121572905 0.67402973997883 0.84754904180254 1.8787233936469 0.95716617433281 1.6038680917237 0.85335576959215 0.72035120657155 1.3921881383027 0.57630494968405 1.5859817291389 1.6269378129718 1.5461184950593 0.1264527493069 1.1402629553073 1.7211493114553 1.2310569151762 1.5569643929637 1.4436076436187 1.4221130705055 1.4599303876782 1.0956625608458 1.6116174721895 1.5836121731286 1.037454979087 1.0940207895964 0.28445726068308 1.9716452116684 0.96603578040324 0.33711467685924 1.7561975255229 1.3470242133208 1.6437689304342 1.712635396961 1.6892991771664 0.66168604399197 0.86008920069879 1.7032466794586 1.4039151903637 1.6568358976676 1.153633061442 1.5126037795217 0.87019218074942 1.061304793201 0.91527008635796 1.5291834521735 1.2391803207227 0.70565152837841 1.9023113220031 1.6785525520741 -0.54162562367023 0.14496703537724 0.91078522106519 1.7146570862444 1.9056133460087 1.571082742475 1.8609649187342 1.2149173626439 1.4675061995293 0.64488953868098 1.6941859057157 0.41994166664697 2.0127331505766 1.1339270400842 1.6320533979321 0.9067527578511 1.628136120424 1.5024926628325 1.3605090121269 1.446753588779 0.42824912954977 1.8552244833598 1.1489267832134 1.5139981003425 0.47889724293241 1.4873056787231 1.5972541033001 0.97413320782027 1.3774087094984 0.90850267330941 1.6962472909781 1.1299987868139 1.486857908384 1.3941137824034 1.280486741962 1.883016395027 0.75282923357007 0.4400280192891 -0.52214825067105 1.7945944916699 1.1563197436659 1.065587330847 0.76700607239867 1.8426970255342 -0.17801810092179 1.6446839969644 1.6080604066122 1.1215909352034 1.040305415324 1.7929660910012 1.9010419185189 1.5055665266647 1.5572683030549 1.8007215708697 1.6531888824498 1.8661512089418 0.73681362167711 1.6534298915922 1.8662140173165 2.0659216647945 0.75096534969104 1.4799282443603 1.4157081864253 1.4779069615667 1.6295738448433 1.6368205035308 0.64363451055932 1.7403776537521 0.74903047638522 1.1492409909587 1.4880399085811 1.9446274427872 1.1928050049449 1.4236268591761 0.13940282690165 1.6815510639682 1.668313297678 1.1872258880069 0.29044553736039 1.4095781494668 0.74120739231122 1.6692092351195 1.2284447648883 1.5173267919212 -0.32507580689531 1.5826756016164 0.66784058237788 0.78832172292484 1.8692743246163 1.2866174399539 1.3752744255725 1.54739101557 0.48435648740435 1.8904489955443 1.8293264972279 1.5335585472113 1.8448010734062 0.68274455408978 1.7203660713592 1.6650551794315 1.5394947021081 1.0591837302401 1.8107107033832 0.52042688542075 1.2842047477245 1.4041429426207 1.2050884736788 0.81578717290311 1.7888229170914 1.5711816444265 1.4200176301656 1.3939800879977 0.73758243597562 1.4122180444051 -0.41469322365062 1.6148266540252 1.0211706010186 -0.24778179063915 0.28016086121491 1.5520930945187 1.8382742666754 1.3663565188087 1.393846728987 1.9108166440047 1.5477823348126 1.1007843897393 1.6430280990341 0.94288196173129 1.2137338621377 1.5011145911599 0.98389715335522 0.35896139498739 1.729146708297 1.4610532658481 1.875404933452 0.78836248663289 1.6956612624875 1.5608982414989 1.4970203232213 1.5858375791227 1.5936415384265 0.24362622597987 1.0980598224642 1.4712232657019 1.0568676391189 1.2523201229486 1.1474937405634 1.7204927614286 1.0891059499263 1.2659879128365 1.4796742345345 1.836379340995 1.7640471511037 1.7547230563331 0.66165678539306 1.8771985345649 1.4907438990654 0.78305211146751 1.2072473898758 1.5138724115122 1.7053950042173 1.1312529985596 0.84282071330708 1.4615814225516 1.6256967664848 1.941924534434 1.4450729707746 1.320075708431 0.83168763745969 1.4222059296824 1.6004956125353 1.6036386228718 1.8061173066571 1.4522523666717 1.6182463606372 1.1717594900227 1.5625460438616 1.6132700012431 0.83112023444992 1.9226035487836 1.4063345379397 0.59154047735862 1.6136683070981 0.92328962037928 1.5501044403056 1.250022405415 1.7403894977759 1.2088888376459 1.232288575863 1.5768591447127 1.1676830043152 1.6791543328563 1.8721751131112 1.3458318985397 1.6637532121415 1.4656988002036 0.49581082848387 1.1602553123094 1.7991246161843 1.7467037802942 0.24932088952263 1.6073323475373 -0.53406365013509 1.4211959801069 1.7454984467218 1.3159636638176 0.66897057892526 1.7868837728802 -0.66035307770305 1.7723302792738 1.3410562226151 1.440742242591 0.75325256625871 1.1903509297881 1.3990520013099 1.076361031847 1.5022129928984 1.0866452623202 1.8315372133981 0.78475949329099 1.4341045257903 1.5230240003447 1.2638882404641 1.3653700739967 1.5986640528183 1.6006682761162 1.4714859125484 1.1214518433604 0.62126109669799 0.755143303519 0.66103970567794 1.5467768977614 1.5900989817739 1.6041189597422 1.0839073281734 1.6820295806569 1.6308780496239 1.1719217218058 1.6060843628233 1.4394502387762 1.6196902053716 0.54219720381956 0.98210414518003 1.6214109629 1.2857361081176 0.97795633777755 1.3508044811195 1.3717774643441 1.0665578949165 1.2874968841148 1.5632298618539 1.5409424986919 1.2191309886524 1.8753306840759 1.8406866777276 1.0982966941678 1.6136291231676 0.73620188066498 1.3418110126218 0.6652779229132 1.6584670900826 -0.18701274883443 0.75250615915978 1.5535316022897 -0.24526320898672 1.7074611479443 0.73952906776115 1.3020009226286 1.3386875092482 1.4444576899326 0.82301808057904 1.421787597657 0.5106153196599 1.2629135260248 1.5894510013212 1.2858994135745 1.5854005541833 1.5779727694632 1.0196378802686 0.84390723558396 0.52323232407822 0.79208607326112 0.63978977047176 1.8858899014932 0.46411578700365 0.93930185343094 1.5406606460665 1.2991558291791 1.6397548532338 1.8373897518974 1.6589455652937 1.6395274180271 1.2558010735295 1.4052625086726 1.5368440455104 1.5558597019203 1.7174762735132 0.57281635011333 1.5945299349209 1.613114921824 1.1823413257835 1.1796555833823 1.6783205930743 1.9581253006402 1.610326789774 1.7331812377188 0.66113195571287 1.2460383395195 1.824565497176 1.6688606585149 1.3163676060956 1.7433582341697 1.0447475337902 1.3870470295655 0.46165045757266 1.72817504419 1.3344789882529 0.71250838116612 1.4575609690382 1.5401809182821 1.4412995065621 -0.14151242366143 1.295858084236 1.5955390425328 1.9048111796063 0.35761592684188 1.7804194448767 0.86917309759138 0.23236575701585 1.2424411489922 -0.45512947543624 1.733207631454 1.9551404424682 1.4508002441993 1.0215139439225 1.5293715670443 1.8031133308274 0.44640575956236 1.6021965863303 1.512595084126 0.23375447872621 1.4884714286384 1.3651298350348 1.6570695915798 0.96619552629586 0.54108551626598 1.448080735182 0.64718215405908 1.2745847051398 1.8868208805198 1.3691842879979 1.5088740595278 1.3598780912732 1.6422254746972 0.37911420460968 0.41898039766149 0.99123158484722 2.0410504270538 1.1488784189649 0.63146131099526 1.5372175625259 1.5908706211812 1.0773735986334 1.3606065468873 1.2548581174196 1.3802941495648 1.615626220776 1.4926749652945 0.76830381691692 1.2990369591633 1.3558075187173 1.6373490987828 1.910502194899 0.62367069644431 1.0049009106312 0.50590907458813 1.5343288731583 1.3284589943105 0.84110064360661 1.0048268454945 1.7296736536441 0.52302272663136 1.2081813004331 1.0787570183508 1.2971657763012 1.7564678843026 1.248155249533 1.1580687129555 1.811323435829 1.9010684296485 1.5545870984735 1.752383138333 1.6355843187839 1.2626659426169 0.79278380405031 0.77011028869806 1.4887270618899 1.0846755700328 1.19568526012 1.5020987583729 0.7903223620158 1.677879400402 -0.114857079246 1.8127415499639 1.6213652948338 1.3683601982678 0.5673215102811 0.70448855212295 1.7791207152197 -0.011209240189244 1.1669538655448 1.4094189837554 0.6162116093411 1.1628874432923 1.9112372131395 1.8039142552078 1.5277967260886 0.69571223127514 1.741698040427 1.7148757010668 0.37441648347118 0.93909013648188 1.6526501284165 1.027213809877 1.563082163117 1.5587761925725 0.96004540501311 1.3884339684131 1.2502147634404 0.775614751017 0.65549785157671 0.64383832709476 1.7738458563935 1.8666002302309 2.4873774629717 1.596603395537 0.92268265443129 1.6767837506669 1.4872459449566 0.96913127549399 1.5212078209002 1.7236867116933 0.53894001375196 1.7284529001292 0.89837920864528 1.7577645162317 1.6132540736489 0.76385784145268 1.187202834578 1.5248373967984 1.4181332626609 1.2551624203694 0.91403924240574 1.6635933727828 1.8257013372301 0.86873569875982 1.7159990319844 1.7598942835289 0.51657675270328 1.9939752704006 1.4248706763707 1.1976907536653 1.1761459024681 1.1298591935416 1.5979459385707 1.4883491461829 1.7210598522044 0.94812032943539 1.79486983095 1.3897151377781 1.4653689969958 1.3452958164714 1.0549398221401 0.67637868184984 1.9148235956302 1.8815671024838 1.4383022570843 1.9313054372287 1.0773357703861 1.0441649356993 1.5424734010431 1.5098910728066 1.3642948551338 1.3730873373114 1.516208182314 1.0544469276479 1.8481583617033 1.8726837166968 1.4196722237906 1.0781441519583 0.81006272808057 1.4259522171315 1.2738118256939 0.31450098054717 1.5770923081978 1.7347305073544 1.2986983651512 1.8534956823302 1.355300001377 1.0969055211557 1.9067186581981 1.5484578190642 0.7371143250563 0.7427464910765 1.3049832402276 1.819474078805 1.1928380381625 1.0974597056478 1.6116555769662 1.3232105426326 1.7419794443148 1.6316476102019 1.2355397335022 1.4129931513051 1.8021359932616 0.90632085695348 1.5978342799277 1.6601461098037 1.8971068569433 1.5125520597462 1.2763406615228 1.7864430421092 1.7751387650952 1.8210700089257 1.532875613084 1.4747336844337 1.5237311086515 1.6118207196099 1.4867418501329 0.94971516193813 0.082516516989086 0.89352889322045 0.8069059900211 0.78135717808454 1.5845678118498 1.3038774921316 1.7731106494409 1.2605868669077 1.5375865350113 1.2896059196325 0.60068392183309 1.7770791431842 1.568420601382 1.6585908758757 -0.33500472266816 1.8662589813547 1.626355447938 1.0525256805919 1.8660876776697 1.2003919636457 1.2214349442813 1.9390294632656 1.3156921010049 0.6361125004043 1.4674562972181 1.2162603040539 1.1104070938812 1.7984347193703 0.96460719546919 1.6580074199571 1.3348587089309 1.3492331433869 1.0533013541046 1.7903044533519 0.2546639159652 0.70168670672008 -0.49988117081539 1.3974742858464 1.4613760029965 0.80791832384337 1.0593325032622 1.5980886436707 1.7878915467925 1.4254095480442 1.6358724068676 0.90137460907756 0.929261556077 1.8658849753907 1.749217223225 1.507983885691 1.6158147210847 1.4967302740256 1.4286351190786 0.60915244390771 1.3926045713417 1.6865891590643 -0.12574493539065 1.3912232494546 1.8952072252384 1.4541918215538 1.4290508931643 1.2613455956432 0.9002015013069 0.45467435489206 1.5512923869262 0.82384301639336 1.3843031031949 1.4136802414223 1.5686725982574 1.6401529892308 1.7852688273406 1.8160076662988 0.35647448190852 1.4776462997375 1.1235244884326 0.43125400379238 1.8274430984566 -0.45963946579114 0.59997035596777 1.3245810340553 1.7027367638057 1.0191804813247 1.5025975766429 0.57848871399857 1.4441517246515 1.0443291042704 1.3043678025344 0.98235284580801 1.0470268770623 1.9098184989305 1.5055527526395 0.73822332433829 -0.037594288151803 1.1022144311034 1.3373578995233 1.5809843302366 1.4900072043716 0.98043959975956 1.8572125401656 1.3495079182908 1.5249901112301 1.4684324306011 0.77701135320907 1.5775908841146 1.5382965193408 1.970119490345 1.4624218788099 1