# vtk DataFile Version 3.0
d-2__ created by libgimli-v1.5.0-1-g5991b6ac
ASCII
DATASET UNSTRUCTURED_GRID
POINTS 257 double
25.5	-0.25	0
25.643267391024	-0.375	0
25.690940791558	-0.19094079155751	0
28.625	-0.27380702240065	0
28.625	-0.13804348840204	0
28.518663902413	-0.18940103023301	0
28.458333333333	-0.087886572211468	0
28.416666666667	0	0
28.375	-0.13804348840204	0
28.291666666667	-0.087886572211468	0
28.333333333333	0	0
28.25	0	0
26.083333333333	0	0
26.041666666667	-0.13804348840203	0
26.125	-0.087886572211466	0
26.166666666667	0	0
26	0	0
26.708333333333	-0.13804348840203	0
26.666666666667	0	0
26.625	-0.087886572211466	0
26.208333333333	-0.07357428207177	0
26.75	0	0
26.791666666667	-0.087886572211464	0
26.333333333333	0	0
26.25	0	0
26.291666666667	-0.087886572211468	0
27.166666666667	0	0
27.208333333333	-0.07357428207177	0
27.25	0	0
26.416666666667	0	0
26.375	-0.13804348840204	0
26.458333333333	-0.087886572211468	0
27.291666666667	-0.087886572211468	0
27.333333333333	0	0
27.625	-0.13804348840204	0
27.518663902413	-0.18940103023301	0
27.625	-0.27380702240065	0
26.583333333333	0	0
28.916666666667	0	0
28.833333333333	0	0
28.875	-0.13804348840204	0
26.833333333333	0	0
26.875	-0.07357428207177	0
29.98747163413	-0.5056358037932	0
30.050519698408	-0.25547676721966	0
29.843533331918	-0.29816134131379	0
29.458333333333	-0.087886572211464	0
29.404607252882	-0.15094638411797	0
29.541666666667	-0.13804348840203	0
26.5	0	0
27.791666666667	-0.087886572211468	0
27.833333333333	0	0
27.75	0	0
27.231336097587	-0.18940103023302	0
27.125	-0.13804348840204	0
25.705488373266	-0.59091608366499	0
26.007921013115	-0.8717186506847	0
25.91135296792	-0.47048281487414	0
30.166666666667	0	0
30.208333333333	-0.087886572211464	0
30.25	0	0
27	0	0
26.916666666667	0	0
26.958333333333	-0.13804348840203	0
30.791666666667	-0.087886572211468	0
30.833333333333	0	0
30.75	0	0
27.041666666667	-0.087886572211464	0
27.083333333333	0	0
30.083333333333	0	0
30.125	-0.07357428207177	0
28.541666666667	-0.073574282071767	0
27.375	-0.13804348840204	0
27.416666666667	0	0
27.5	0	0
27.458333333333	-0.087886572211468	0
28.583333333333	0	0
28.666666666667	0	0
28.226291378505	-0.21877391554365	0
28.432011579996	-0.40775209656411	0
30.148002764253	-0.18940103023303	0
30.208717134119	-0.38392172835888	0
30.291666666667	-0.13804348840203	0
28.208333333333	-0.07357428207177	0
28.166666666667	0	0
28.125	-0.072182208352023	0
27.875	-0.13804348840204	0
26.237940586216	-0.15094638411797	0
27.916666666667	0	0
27.708333333333	-0.07357428207177	0
28.083333333333	0	0
28	0	0
28.041666666667	-0.13804348840203	0
26.190375288162	-0.21877391554366	0
27.958333333333	-0.087886572211464	0
26.541666666667	-0.073574282071767	0
26.571273919549	-0.15094638411796	0
26.317063962986	-0.25702488420529	0
27.541666666667	-0.073574282071767	0
28.5	0	0
29.583333333333	0	0
29.625	-0.087886572211466	0
28.791666666667	-0.087886572211468	0
26.203594889612	-0.40391444725954	0
27.583333333333	0	0
27.666666666667	0	0
28.75	0	0
28.958333333333	-0.087886572211464	0
29	0	0
29.041666666667	-0.13804348840203	0
28.708333333333	-0.07357428207177	0
29.083333333333	0	0
29.125	-0.087886572211466	0
29.166666666667	0	0
29.208333333333	-0.13804348840203	0
29.25	0	0
28.165334880767	-0.15260258505374	0
29.291666666667	-0.087886572211464	0
27.731336097587	-0.18940103023302	0
29.5	0	0
29.416666666667	0	0
29.333333333333	0	0
29.375	-0.07357428207177	0
29.666666666667	0	0
28.086941669094	-0.2859797646022	0
27.958333333333	-0.18219221742147	0
29.125	-0.18219221742148	0
29.228873378537	-0.27753669533404	0
29.708333333333	-0.07357428207177	0
29.041666666667	-0.23876614697008	0
28.958333333333	-0.18219221742147	0
29.833333333333	0	0
29.875	-0.13804348840204	0
29.916666666667	0	0
29.791666666667	-0.087886572211468	0
29.75	0	0
29.958333333333	-0.087886572211464	0
30	0	0
29.483730629652	-0.25702488420531	0
30.333333333333	0	0
30.375	-0.087886572211466	0
29.369620976373	-0.40603607246707	0
29.604159114629	-0.34842263547806	0
31.124752694808	-0.11296503030675	0
31	0	0
30.958333333333	-0.087886572211468	0
30.041666666667	-0.13804348840203	0
30.416666666667	0	0
30.458333333333	-0.07357428207177	0
30.875	-0.13804348840204	0
30.583333333333	0	0
30.541666666667	-0.13804348840203	0
30.625	-0.087886572211466	0
30.5	0	0
30.43533056908	-0.18940103023302	0
30.916666666667	0	0
30.385963434616	-0.36114994877356	0
30.708333333333	-0.07357428207177	0
30.666666666667	0	0
29.636111778917	-0.20065391017952	0
30.999752694808	-0.25100851870879	0
28.731336097587	-0.18940103023302	0
26.851997235747	-0.18940103023303	0
30.737940586216	-0.15094638411797	0
26.523708621495	-0.21877391554365	0
27.133853031742	-0.25547676721968	0
26.949480301592	-0.25547676721966	0
27.041666666667	-0.52911283384145	0
27.041666666667	-0.18219221742147	0
29.357041954828	-0.21877391554366	0
29.737940586216	-0.15094638411797	0
30.690375288162	-0.21877391554366	0
29.958333333333	-0.18219221742147	0
25.875	-0.11303967622539	0
25.75	0	0
26.650397296319	-0.25702488420526	0
27.292050467453	-0.38392172835888	0
27.414390113348	-0.63321254312708	0
27.469144028345	-0.36097200963104	0
27.848127708251	-0.28948918465343	0
28.848127708251	-0.28948918465343	0
28.726596951268	-0.4234584073117	0
29.731548923005	-0.26700761442393	0
30.817063962986	-0.25702488420529	0
26.031958747178	-0.33325463579056	0
26.523689393121	-0.44776195923934	0
29.184065504659	-0.43422319923747	0
29.545209981036	-0.61464357222601	0
30.552290248164	-0.29580321144285	0
31.25	0	0
26.800529041383	-0.37028063139366	0
29.130694908432	-0.28024272799092	0
28.907115884997	-0.43487734236883	0
31.5	-0.5	0
31.5	-0.25	0
31.356886217184	-0.375	0
31.308843572405	-0.19115642759521	0
31.5	0	0
27.681768476189	-0.55823447719905	0
29.041897355025	-0.3545575021244	0
28.950100433703	-0.28398118611486	0
29.746371622197	-0.43057135368151	0
29.045779100149	-0.5143168838031	0
27.615347366628	-0.83560735755964	0
27.971649595913	-0.56775148091581	0
28.235269600634	-0.41546210057925	0
28.346412380513	-0.73751448832674	0
28.007726950717	-0.98664640296265	0
26.322202955504	-0.72835150504623	0
29.798122080496	-0.68908130839227	0
30.703430397599	-0.40445925111313	0
30.914859484231	-0.44990795630246	0
29.247599241801	-0.70334449364573	0
31.053928463665	-0.58159990549132	0
31.221377875989	-0.67457110982012	0
31.225195424337	-0.49586438948828	0
30.530720924191	-0.4852517756918	0
30.323984230706	-0.57992151527177	0
25.84485407481	-1.2957460393421	0
25.743909551686	-0.8528010586154	0
30.746070739038	-0.72060716412098	0
29.604860290622	-0.8788438191921	0
29.043947453281	-1.1807973577914	0
29.54268225478	-1.3246684327942	0
29.849430697053	-0.99522786547226	0
30.043693421774	-0.75311160759413	0
28.849047319116	-0.69970565535729	0
31.000856094841	-0.87446921301307	0
31.5	-1	0
25.845623228308	-0.30002188546398	0
30.512369350266	-0.71824350459	0
30	-1.6666666666667	0
30.051778272566	-1.3024535658708	0
25.5	0	0
27.680522574649	-1.2514855461386	0
27.375	-1.6666666666667	0
27.75	-1.6666666666667	0
31.174325422113	-0.32450830281231	0
25.5	-0.5	0
26.747329141204	-0.71351083399284	0
25.5	-0.75	0
26.348572023727	-1.2023161679924	0
27.179597305363	-1.0673000334922	0
29.25	-1.6666666666667	0
25.5	-1	0
30.75	-1.6666666666667	0
31.013091550828	-1.3141602648437	0
30.625304590967	-1.106556793762	0
30.375	-1.6666666666667	0
30.189043391347	-0.96114657873573	0
28.064690440023	-1.391571216678	0
28.426745644615	-1.201505510398	0
25.5	-1.6666666666667	0
27	-1.6666666666667	0
26.25	-1.6666666666667	0
28.5	-1.6666666666667	0
31.5	-1.6666666666667	0
CELLS 429 1716
3	0	1	2	
3	3	4	5	
3	6	7	8	
3	9	10	11	
3	12	13	14	
3	14	15	12	
3	16	13	12	
3	17	18	19	
3	20	15	14	
3	7	10	8	
3	21	17	22	
3	23	24	25	
3	26	27	28	
3	29	30	31	
3	23	30	29	
3	28	32	33	
3	34	35	36	
3	19	18	37	
3	38	39	40	
3	22	41	21	
3	41	22	42	
3	43	44	45	
3	18	17	21	
3	46	47	48	
3	31	49	29	
3	50	51	52	
3	53	27	54	
3	55	56	57	
3	58	59	60	
3	61	62	63	
3	64	65	66	
3	67	68	61	
3	67	61	63	
3	69	70	58	
3	4	71	5	
3	72	73	33	
3	5	6	8	
3	74	73	75	
3	73	72	75	
3	76	4	77	
3	78	79	8	
3	80	81	82	
3	83	84	85	
3	50	86	51	
3	25	87	30	
3	86	88	51	
3	52	89	50	
3	90	91	92	
3	93	87	14	
3	94	92	91	
3	95	49	31	
3	9	8	10	
3	84	83	11	
3	19	95	96	
3	91	88	94	
3	25	30	23	
3	9	11	83	
3	97	30	87	
3	98	74	75	
3	99	71	76	
3	100	48	101	
3	33	32	72	
3	99	7	6	
3	41	42	62	
3	102	40	39	
3	71	99	6	
3	97	93	103	
3	104	34	105	
3	39	106	102	
3	74	98	104	
3	38	107	108	
3	107	109	108	
3	35	75	72	
3	106	110	102	
3	34	98	35	
3	28	27	32	
3	111	112	113	
3	109	111	108	
3	59	82	60	
3	113	114	115	
3	116	9	83	
3	114	117	115	
3	50	89	118	
3	119	120	46	
3	119	48	100	
3	110	106	77	
3	120	121	122	
3	89	52	105	
3	101	123	100	
3	124	92	125	
3	54	26	68	
3	114	126	127	
3	101	128	123	
3	129	109	130	
3	131	132	133	
3	134	131	135	
3	48	119	46	
3	115	117	121	
3	136	137	133	
3	47	138	48	
3	60	82	139	
3	82	140	139	
3	141	142	138	
3	143	144	145	
3	122	47	46	
3	146	137	136	
3	113	112	114	
3	134	132	131	
3	147	140	148	
3	149	65	64	
3	150	151	152	
3	150	153	151	
3	148	154	151	
3	147	148	153	
3	65	149	155	
3	59	58	70	
3	155	145	144	
3	82	81	156	
3	145	155	149	
3	146	69	137	
3	157	158	152	
3	154	140	82	
3	147	139	140	
3	101	48	159	
3	149	160	145	
3	102	110	161	
3	150	152	158	
3	42	22	162	
3	157	163	64	
3	5	71	6	
3	4	76	71	
3	85	84	90	
3	116	83	85	
3	96	31	164	
3	49	95	37	
3	15	20	24	
3	25	20	87	
3	14	13	93	
3	25	24	20	
3	165	166	167	
3	63	168	67	
3	54	68	67	
3	17	162	22	
3	63	62	42	
3	35	98	75	
3	34	104	98	
3	26	54	27	
3	63	42	162	
3	88	86	94	
3	125	94	86	
3	105	34	89	
3	118	89	34	
3	77	4	110	
3	161	110	4	
3	111	109	112	
3	126	112	109	
3	47	117	169	
3	120	122	46	
3	38	40	107	
3	130	107	40	
3	121	117	122	
3	117	114	169	
3	80	70	146	
3	123	128	135	
3	134	128	170	
3	159	48	138	
3	134	135	128	
3	163	152	171	
3	158	157	66	
3	154	148	140	
3	151	153	148	
3	69	146	70	
3	172	44	146	
3	9	78	8	
3	161	40	102	
3	90	92	85	
3	116	78	9	
3	92	94	125	
3	5	79	3	
3	164	31	30	
3	19	37	95	
3	173	16	174	
3	164	175	96	
3	17	19	96	
3	53	165	176	
3	53	32	27	
3	118	86	50	
3	175	17	96	
3	176	177	178	
3	118	36	179	
3	78	116	124	
3	180	3	181	
3	169	114	127	
3	114	112	126	
3	134	170	132	
3	133	132	136	
3	44	80	146	
3	146	136	172	
3	82	59	80	
3	152	151	171	
3	64	66	157	
3	80	59	70	
3	64	163	149	
3	170	101	159	
3	136	132	172	
3	85	92	116	
3	124	116	92	
3	97	164	30	
3	166	168	63	
3	14	87	20	
3	87	93	97	
3	117	47	122	
3	47	169	138	
3	101	170	128	
3	142	182	159	
3	132	45	172	
3	149	163	183	
3	31	96	95	
3	162	166	63	
3	184	93	13	
3	97	185	164	
3	156	154	82	
3	141	127	186	
3	142	141	187	
3	44	172	45	
3	152	163	157	
3	163	171	183	
3	103	93	184	
3	53	72	32	
3	154	188	151	
3	189	144	143	
3	185	175	164	
3	175	190	162	
3	118	179	86	
3	125	179	124	
3	109	107	130	
3	126	129	191	
3	161	180	40	
3	127	126	191	
3	169	141	138	
3	141	169	127	
3	125	86	179	
3	180	181	192	
3	193	194	195	
3	196	194	197	
3	149	183	160	
3	143	145	160	
3	167	176	165	
3	162	17	175	
3	198	178	177	
3	72	53	176	
3	118	34	36	
3	185	97	103	
3	126	109	129	
3	186	191	199	
3	180	130	40	
3	130	180	200	
3	161	4	3	
3	129	199	191	
3	138	142	159	
3	45	182	201	
3	130	200	129	
3	192	202	199	
3	202	186	199	
3	129	200	199	
3	142	187	201	
3	191	186	127	
3	180	192	200	
3	199	200	192	
3	180	161	3	
3	142	201	182	
3	54	67	168	
3	203	204	198	
3	79	5	8	
3	78	124	205	
3	182	170	159	
3	151	188	171	
3	185	190	175	
3	204	206	205	
3	201	43	45	
3	43	81	44	
3	207	206	204	
3	57	56	208	
3	44	81	80	
3	209	201	187	
3	35	72	178	
3	57	208	103	
3	13	16	173	
3	183	210	211	
3	141	212	187	
3	45	170	182	
3	213	214	215	
3	205	79	78	
3	216	156	217	
3	45	132	170	
3	196	197	189	
3	218	56	219	
3	178	198	36	
3	188	156	216	
3	220	211	210	
3	57	103	184	
3	204	179	198	
3	165	53	54	
3	221	222	223	
3	209	224	225	
3	43	217	81	
3	226	212	202	
3	214	227	228	
3	211	160	183	
3	210	171	188	
3	226	192	181	
3	193	215	214	
3	3	79	181	
3	205	206	79	
3	186	212	141	
3	212	186	202	
3	173	229	13	
3	167	177	176	
3	72	176	178	
3	206	226	181	
3	213	227	214	
3	217	230	216	
3	196	195	194	
3	231	232	223	
3	227	213	220	
3	206	181	79	
3	187	212	221	
3	173	174	2	
3	13	229	184	
3	174	233	2	
3	234	235	236	
3	196	189	143	
3	233	0	2	
3	160	237	143	
3	237	195	196	
3	1	0	238	
3	173	2	229	
3	177	203	198	
3	198	179	36	
3	239	190	185	
3	35	178	36	
3	192	226	202	
3	195	215	193	
3	188	216	210	
3	220	210	216	
3	213	237	211	
3	154	156	188	
3	124	179	204	
3	221	212	222	
3	240	219	55	
3	54	168	165	
3	196	143	237	
3	195	237	215	
3	55	1	238	
3	167	166	190	
3	2	1	229	
3	1	55	57	
3	190	166	162	
3	204	205	124	
3	241	208	56	
3	242	167	239	
3	223	222	243	
3	156	81	217	
3	160	211	237	
3	213	215	237	
3	183	171	210	
3	228	193	214	
3	219	244	218	
3	56	55	219	
3	184	229	57	
3	57	229	1	
3	220	213	211	
3	245	246	247	
3	230	220	216	
3	220	247	227	
3	248	247	232	
3	228	227	246	
3	55	238	240	
3	249	230	217	
3	247	249	232	
3	166	165	168	
3	221	209	187	
3	43	225	217	
3	209	43	201	
3	247	246	227	
3	190	239	167	
3	207	204	203	
3	208	185	103	
3	242	203	177	
3	207	250	251	
3	240	244	219	
3	252	218	244	
3	224	209	221	
3	217	225	249	
3	43	209	225	
3	241	242	239	
3	167	242	177	
3	253	242	241	
3	56	218	241	
3	212	226	222	
3	249	225	224	
3	234	250	207	
3	239	185	208	
3	231	223	243	
3	224	232	249	
3	252	254	218	
3	241	218	254	
3	253	241	254	
3	239	208	241	
3	206	207	251	
3	224	221	223	
3	223	232	224	
3	248	245	247	
3	234	207	203	
3	250	255	251	
3	251	226	206	
3	255	243	222	
3	249	247	230	
3	220	230	247	
3	203	242	234	
3	235	242	253	
3	255	222	251	
3	226	251	222	
3	232	231	248	
3	245	256	246	
3	228	246	256	
3	242	235	234	
3	234	236	250	
3	255	250	236	
CELL_TYPES 429
5 5 5 5 5 5 5 5 5 5 5 5 5 5 5 5 5 5 5 5 5 5 5 5 5 5 5 5 5 5 5 5 5 5 5 5 5 5 5 5 5 5 5 5 5 5 5 5 5 5 5 5 5 5 5 5 5 5 5 5 5 5 5 5 5 5 5 5 5 5 5 5 5 5 5 5 5 5 5 5 5 5 5 5 5 5 5 5 5 5 5 5 5 5 5 5 5 5 5 5 5 5 5 5 5 5 5 5 5 5 5 5 5 5 5 5 5 5 5 5 5 5 5 5 5 5 5 5 5 5 5 5 5 5 5 5 5 5 5 5 5 5 5 5 5 5 5 5 5 5 5 5 5 5 5 5 5 5 5 5 5 5 5 5 5 5 5 5 5 5 5 5 5 5 5 5 5 5 5 5 5 5 5 5 5 5 5 5 5 5 5 5 5 5 5 5 5 5 5 5 5 5 5 5 5 5 5 5 5 5 5 5 5 5 5 5 5 5 5 5 5 5 5 5 5 5 5 5 5 5 5 5 5 5 5 5 5 5 5 5 5 5 5 5 5 5 5 5 5 5 5 5 5 5 5 5 5 5 5 5 5 5 5 5 5 5 5 5 5 5 5 5 5 5 5 5 5 5 5 5 5 5 5 5 5 5 5 5 5 5 5 5 5 5 5 5 5 5 5 5 5 5 5 5 5 5 5 5 5 5 5 5 5 5 5 5 5 5 5 5 5 5 5 5 5 5 5 5 5 5 5 5 5 5 5 5 5 5 5 5 5 5 5 5 5 5 5 5 5 5 5 5 5 5 5 5 5 5 5 5 5 5 5 5 5 5 5 5 5 5 5 5 5 5 5 5 5 5 5 5 5 5 5 5 5 5 5 5 5 5 5 5 5 5 5 5 5 5 5 5 5 5 5 5 5 5 5 5 5 5 5 5 5 5 5 5 5 5 5 5 5 5 5 5 5 5 5 5 5 
CELL_DATA 429
SCALARS Coverage double 1
LOOKUP_TABLE default
1.6702104386079 2.5931954099303 3.0390042482186 3.3437339223107 2.4646473113397 2.7146916528315 2.8509054335528 2.8562961943588 2.6569237643495 3.1785239388104 2.8951733153982 3.0494216471577 3.3235765597504 2.7798167835924 2.8520724178933 3.3478099979668 2.5682507069412 2.9670362563339 3.1380490760952 3.4320879208202 3.0895079616141 2.2623881662728 3.4087254388108 2.6416568808037 3.1761901825751 3.4835324613699 2.6489658996561 1.2760905012826 3.1620745553625 3.3163817384962 2.7410078790905 3.4672237726828 3.0195034302054 3.0093409856611 2.7738990977358 3.063832951138 2.806450955672 3.101649672663 2.8004192169205 3.1999469025747 2.4960102429378 2.3744293495657 3.0698311954574 3.0593475757746 2.4382176952425 3.159240671402 3.0348348501366 3.4255983737541 2.4194337765181 2.8912779307932 2.7550647680177 3.0080191752505 3.3439413764979 2.6380987484664 3.3639623882334 2.6285275283626 2.8954243703785 2.3618094609871 2.7165816987436 3.3355499023209 2.9104723901724 3.0410568086312 3.3785313290239 3.178593683456 3.010265947001 2.9078531980243 2.0869844468099 3.1631877868546 3.4446643307376 3.1696205214958 3.5264581265869 3.0489483668613 2.6795265528803 3.0752059351826 2.7554087507232 3.0284602343616 3.2155209782711 3.4734740930721 2.717614106048 3.2089770716343 2.81056120618 3.2555816932727 2.8751879229163 3.132651688601 3.0791503302122 3.5176697961285 3.0628209761304 3.4631142940264 3.1102377080841 2.6254828977878 2.9921354072568 2.6311772001791 3.0978945430567 2.7103420362686 3.0836945356999 3.3666823316202 2.7237678411928 3.3876023023347 3.4217845306494 2.5672625836115 3.0562355835978 2.7749145837668 2.2751005401278 2.1000549048828 2.8489194367425 2.9211490118521 2.9565906183832 2.9704026453721 2.9693023984915 2.4374084050312 2.665032618178 3.2802446205407 2.6443824874825 3.3569107124047 2.5688742551371 2.8694429851216 2.5837341054049 2.2683539125925 2.2659123612105 3.3904667825793 2.5952640883691 2.5551710358167 3.0017823484177 2.7226070180961 2.0935350464673 2.9094949337257 2.7344504083929 2.8019311789431 2.3700908061476 2.7840471307386 3.0033258788705 3.1368159489817 2.966976774439 2.4978248820272 3.1681946744782 3.049164055681 2.4892949168478 2.3004830636708 2.6782662418321 2.2229706344777 2.7571220027885 2.9992798119347 2.7305475198163 2.970747605929 2.6208524233634 2.9092640428367 2.9047198917622 2.7012314538755 2.9969391986534 2.7562322474596 3.0959476575124 2.9152015760614 3.1849730589808 2.9299244123049 3.0856542781912 2.8232064251962 2.9224670837255 2.9486664401927 3.0740150067668 2.8210014576215 3.0403230979632 2.8544000054369 2.722678724032 3.3890031106808 2.8295472151684 2.5692701594527 3.1458810691459 2.2429533246925 2.765133483212 2.739937691625 2.9634745934334 2.9212971409282 2.6265825944428 2.7520148554182 2.7918281132914 3.0535350616815 2.7290449727449 2.7903221807857 2.4168010737703 2.5178006257121 2.8318630310012 2.7514639712367 2.3723607253003 2.6575445145162 2.3621177191752 2.7931768009205 2.8173362796374 2.4738964986551 2.0716197107796 2.5393720057195 2.5876984446367 2.3390871356455 2.6991323540678 2.7290779629504 2.7455524809743 2.9915588460872 2.5521796332456 2.7867989327198 2.5311150892716 2.3444273681255 2.5442490600761 2.7016531685144 2.4110186778269 2.869976555158 2.7461817999913 2.9211138967993 2.748586010728 2.337226852143 2.5509517529139 2.6141932792276 2.2587539257592 3.0359676600841 2.580324914202 3.0818301113719 2.4681368295622 2.5140456679708 2.2117962451083 2.6408401376316 2.5307667690251 2.1125659159826 2.148794769997 2.4137407871029 2.2423449391503 2.0670893156415 2.4563480201627 2.3992302901448 2.097574001535 1.9205087684957 2.901461531375 2.49031384211 2.5201891492168 2.1860174884434 2.3376835300053 2.6552280548763 2.4883810615935 2.8843820133466 2.5379201859323 2.609658606242 2.5107159771026 2.3888464860791 2.4343351084456 2.5929041812125 2.2329909358191 1.4103053806854 1.6502619989673 2.0070687462492 2.0626622554207 2.1562912097676 2.5590953503623 2.0009978549651 2.6217804286521 2.7129816244323 1.9655426811599 2.6551288494849 2.2905965415054 2.612613903697 2.4949116348232 2.7113293152646 2.4147084840591 2.4087348004343 2.2971858759046 2.5574988545482 2.142725141126 2.1383448874634 2.4163168197412 2.0653643321084 2.338262389636 2.3082568485363 2.2852998496678 2.5316351272441 2.2770324561157 2.7186994132291 1.8631705781976 2.5270421911856 2.3738408375269 2.6688414324586 2.1725564089037 2.1323706534001 1.9888957545482 2.1520639627867 2.1490409475922 1.7460155991207 1.3006211175714 2.3536862933573 1.881289005063 2.4671050356597 1.5556449408464 2.2505857144349 1.785313138729 1.8940032888421 2.486931735568 1.3086563959444 2.2942885047396 1.9080142562931 2.5545739555392 1.8332908417131 0.95593698880952 2.1886303386601 2.0796105035298 1.5662455026133 1.7058349236333 2.1081743179563 2.5032708290581 1.204428318541 1.5086447140446 1.9528841536371 1.8428884003287 0.99968840171619 1.8671467768694 2.0066757301284 2.028067231931 1.250557177249 2.2522545059113 2.0676958002833 1.9979900214992 1.9626199696057 2.0931263742754 1.965769953836 2.3576465314126 1.8876989842676 1.185560818658 1.6409977398041 1.5744765728978 0.84120089491113 1.2294771636437 2.0512266161315 1.6701365375312 2.1798005046566 1.952324367764 1.9722534451752 0.87987628646205 2.0172152952079 1.7717031249152 1.897558288132 1.6560630439694 1.4892579824863 2.0067244296745 1.790559221285 2.2867546219111 1.8508369935198 2.4077974551672 1.9845175655401 1.3547313727294 1.8972614707153 1.634837463068 1.5450924801331 2.2842272595694 2.2497334427848 1.4725516756819 1.0578899287435 2.5297152065626 1.8484286882785 1.4995120957923 1.3435000449815 2.1570085546066 1.778263716749 1.4525207586865 2.35269362459 2.1778546700612 1.1204512505162 1.5742171241649 0.97125638045006 1.9944079195003 1.7462218055803 1.4422391223937 1.9329156480644 1.0656787757231 0.8505812147136 1.0806352766341 1.7451777662943 1.6402508558791 1.4095398414208 0.73873994630399 1.4726476278994 1.0826490631176 0.78980384174643 0.86537486570021 1.1746427008089 1.4434806409443 1.0356522539314 2.4363536998306 1.6593041739885 1.7107698340833 1.9241228228965 0.89541064523686 1.878635816714 1.6860441150163 1.6769553526886 1.5575619468193 1.2504054547881 0.93152939936585 0.64440912581386 1.471127347231 1.484225026545 1.7296610124727 1.2010512188958 1.6502853853221 0.89957328725864 0.89735462705937 1.5837211575272 1.3428450862656 1.2231485774418 1.5885248146435 0.79326546831751 1.1461184055185 0.58114147997883 0.71549136572463 0.67025251520265 1.2551565208159 1.5061698052215 1.2550367256382 1.0659038540248 0.67230870498605 1.4073413433225 1.0335860333629 1.60575290939 0.89809480997685 1.1791722030883 1.2205472227043 1.3266668555934 0.85513951815164 1.0783463642575 1.4050320761103 0.69532211073446 0.59255759967068 0.64073789110345 1.0340430005324 0.99359450125896 0.90489868880457 
SCALARS Marker double 1
LOOKUP_TABLE default
0 1 2 3 4 5 6 7 8 9 10 11 12 13 14 15 16 17 18 19 20 21 22 23 24 25 26 27 28 29 30 31 32 33 34 35 36 37 38 39 40 41 42 43 44 45 46 47 48 49 50 51 52 53 54 55 56 57 58 59 60 61 62 63 64 65 66 67 68 69 70 71 72 73 74 75 76 77 78 79 80 81 82 83 84 85 86 87 88 89 90 91 92 93 94 95 96 97 98 99 100 101 102 103 104 105 106 107 108 109 110 111 112 113 114 115 116 117 118 119 120 121 122 123 124 125 126 127 128 129 130 131 132 133 134 135 136 137 138 139 140 141 142 143 144 145 146 147 148 149 150 151 152 153 154 155 156 157 158 159 160 161 162 163 164 165 166 167 168 169 170 171 172 173 174 175 176 177 178 179 180 181 182 183 184 185 186 187 188 189 190 191 192 193 194 195 196 197 198 199 200 201 202 203 204 205 206 207 208 209 210 211 212 213 214 215 216 217 218 219 220 221 222 223 224 225 226 227 228 229 230 231 232 233 234 235 236 237 238 239 240 241 242 243 244 245 246 247 248 249 250 251 252 253 254 255 256 257 258 259 260 261 262 263 264 265 266 267 268 269 270 271 272 273 274 275 276 277 278 279 280 281 282 283 284 285 286 287 288 289 290 291 292 293 294 295 296 297 298 299 300 301 302 303 304 305 306 307 308 309 310 311 312 313 314 315 316 317 318 319 320 321 322 323 324 325 326 327 328 329 330 331 332 333 334 335 336 337 338 339 340 341 342 343 344 345 346 347 348 349 350 351 352 353 354 355 356 357 358 359 360 361 362 363 364 365 366 367 368 369 370 371 372 373 374 375 376 377 378 379 380 381 382 383 384 385 386 387 388 389 390 391 392 393 394 395 396 397 398 399 400 401 402 403 404 405 406 407 408 409 410 411 412 413 414 415 416 417 418 419 420 421 422 423 424 425 426 427 428 
SCALARS Resistivity double 1
LOOKUP_TABLE default
86.919441071818 89.790548263993 81.147886349463 65.619678126891 107.99769121466 149.40241048686 94.51792838326 61.554769214146 150.36424455999 85.574902771964 93.608551546129 64.194105126055 33.955676120907 81.279570064794 75.677866577754 218.44264089774 82.410909431545 46.337817521711 58.249520108228 76.010195549782 74.368482947354 107.55267161103 88.049484012375 83.343152045153 84.516211851252 64.614023417477 66.653578459954 192.21677715026 62.560964230471 58.469272160029 78.776778721911 69.605204994685 73.54762846605 71.475262638885 71.115556874467 147.76521131 74.889194900493 62.884699537842 81.203626850084 83.865775535404 89.102866550011 59.512594266233 94.987904700532 64.755978424476 79.199099720697 52.290051116022 98.714434827899 135.72743460454 86.231044672928 67.639676431054 57.675769907085 74.886874493596 86.238858085991 50.82574265658 41.439141827155 70.952559146126 69.925109466167 72.136685962057 60.088216855276 52.114961553221 103.87930765729 170.01616583976 81.807981560521 63.547214598202 60.532268924413 61.350355294709 71.722905824081 134.02691492841 58.121910937593 75.923558252206 79.125345369983 81.584904811325 66.064102785403 84.386128711664 75.034404087975 95.529785404605 53.017999383115 67.036279253552 54.852512938766 47.038628756079 74.349840572661 133.74807660862 95.696651915688 103.97610990682 74.363551633308 108.88443141596 184.7821648608 141.29641418836 163.12835974628 83.456153530278 39.381108337814 99.09790978367 185.17900393878 100.66609910396 39.529379274021 39.161748343291 76.300571055974 255.56108107233 48.594211336689 80.259393537732 50.602066571744 68.510298791593 103.61791692235 34.885473426511 113.46338134866 71.016494337115 55.270084384739 45.413414650334 102.25967664161 72.22337865108 43.763236364111 65.840346710132 109.57798805069 119.5103265189 88.861979849321 63.726753916928 54.768957708634 69.895744452934 59.771324986067 96.62060241514 19.664986673017 82.979975081703 80.544189996715 96.053488493187 43.663834118178 87.544921459715 25.244807034422 89.272551917172 35.12422611261 65.885136542054 65.338053217196 112.73894710654 84.902686873399 66.19510361166 37.469565856181 169.66395918457 97.90084075423 81.21229273175 107.39627740439 110.46863678708 78.893327106679 56.178848461663 98.475091068976 67.253767899175 61.618984441917 91.938795709991 39.810699065516 87.31650613723 50.643539826019 66.937067332454 133.09921413394 107.64992725449 101.28811553308 99.438775170147 65.941145660025 80.853678763118 114.61513840803 131.91601782473 70.03877054301 82.174043700102 198.9676968058 116.67034425368 67.192745626058 217.7483456099 106.81584992872 84.17779291231 110.05800033553 39.573606199067 14.281143471091 102.53083459289 111.27444022694 77.630165586971 79.219411483626 78.569197912778 77.943457143873 113.15438761575 78.434869873765 71.251931163212 100.01181359134 73.189637462164 41.459380768467 24.51218304706 73.22019326883 60.250270881475 92.115346885893 91.608983039311 82.750157838829 74.720211951521 110.88671113529 99.446562243729 90.352156569139 134.79188647511 107.84568771038 76.726267693796 78.514846426775 49.923988027244 71.242822570077 74.460333643892 55.150474091654 50.346256961305 34.301968181607 59.727417809858 47.165727245779 112.7184296186 69.80855199997 91.348837658274 87.188357798485 69.997897980666 91.950500789409 111.77366046608 74.226778147781 139.5502264608 93.240938050909 138.90944739666 104.36058760394 87.061375729156 42.338156098235 57.246021098483 100.62758747627 64.43575232989 73.885570184725 77.423547662566 135.03146373383 136.61359003297 92.804758792217 29.296916941825 44.134167110157 70.284047391397 118.28977073182 90.831899617827 27.728311520141 83.276368710645 113.24500226828 89.471203252307 97.08431611762 87.936725593624 115.22180593638 92.456995766973 115.19727957669 98.332625388951 110.08267150751 84.090103766626 155.56236288924 110.09856005649 81.478139668759 42.573819789329 38.369193792556 108.90674204365 96.382890499166 124.81333847085 94.662729361259 95.493251448547 82.055906670219 99.18665466311 144.79724988039 94.028529805807 114.34806485637 101.63697534622 130.66323554402 92.903266505786 120.24316750038 114.82238887366 176.20310665822 172.85439213647 131.25330335312 143.15276121134 131.40819183514 139.05142147539 148.90768655598 110.69886465865 120.6169817454 70.605243328182 161.52827188772 84.597360710885 109.45230262579 108.11169722687 70.161076117307 113.41306591473 143.20440785904 132.73507827929 94.646037776664 174.01718715262 194.72099993799 71.147282060886 182.42409550021 72.238048254804 128.26648298499 40.432108559329 61.513879758408 182.4823435964 107.15654596403 150.43308658177 109.56817190715 103.47920277924 92.543670961772 65.391073592127 303.39269012072 106.61103921477 88.819427664239 88.986069884378 87.407802173514 136.8092884055 78.873467818453 402.99967142355 255.64664104018 113.19467676999 239.59842954765 227.64509151003 52.165341408293 67.620215106367 189.69399343885 156.945627193 129.92108462962 132.6269922498 170.75768176972 195.36408070564 46.442060314405 131.21251865481 84.55243265094 196.79578464004 182.120862898 143.8906405024 93.017594027483 457.36390934008 170.12400536822 151.32862173416 249.86162085897 40.883578181189 57.694587104955 55.765526108664 285.12421601002 47.875547368075 72.075676209406 50.926499220986 85.54252309977 115.42510868352 51.951580368304 159.71435875858 115.11157214576 156.81499630918 83.941933316084 204.90179311493 124.67370764242 83.92526191056 101.90719031032 93.846994311496 85.331794817471 124.00296130523 334.25192278915 238.89352763022 80.04528551342 59.526874707375 108.40418647708 147.47742930233 133.21307696141 76.04482989087 140.89797825288 118.10629175055 127.64092081094 268.00447848886 227.27597635644 443.85487135316 91.737811149771 61.806782149451 116.18652556214 55.223355146016 198.07816925975 323.51721988321 244.23489934683 77.744499899395 94.704860485333 113.14093077906 376.62571904999 144.67823619451 225.56317182572 420.27554931667 303.56487685338 191.12876334228 200.71849089721 344.30449005628 93.511831123967 239.87705433803 172.31612298889 171.82919309562 305.026079675 172.45461835761 183.3905590947 124.67846849897 196.02081437025 245.1501832036 282.26265572485 373.7614640819 288.97032727292 215.03956735812 199.57524190524 312.11117319366 187.6345001323 381.96453339699 329.94311353154 308.06994216497 272.67557256949 244.11567271568 178.42122123771 475.87724484218 345.83012742683 400.62450617076 393.72895360564 417.11260985953 262.82943569693 212.46463511845 372.71940054156 404.37828716256 416.15925464086 220.49164380408 286.86343301633 236.31952869237 410.72467404271 249.34891794348 204.99409791215 238.13735748682 347.41968462156 339.52755840212 305.51107632654 451.87465504743 385.01079472614 360.88683799568 294.7274472 270.51354751181 280.46877243677 
SCALARS Resistivity_(log10) double 1
LOOKUP_TABLE default