# vtk DataFile Version 3.0
d-3__ created by libgimli-v1.5.0-1-g5991b6ac
ASCII
DATASET UNSTRUCTURED_GRID
POINTS 1483 double
3.3802423101098	12.435481574566	-0.57001420684378
3	12	-0.2857142857143
3.4959596309848	11.998298039034	0
3.2490070092203	12.168560129388	0
6.0395510135596	13.367156253372	-1.2757999763971
6.5930002103947	12.023472734859	-1.2922192071349
5.4998599382803	12.552571297657	-0.59337769664261
5.29662096318	11.932351047571	-1.5392209346082
5.6153020589615	9.1440579133635	-1.0774777831171
5.7237069713611	8.5589744845549	-0.30827017969781
5	9	-0.2857142857143
5.3151026533923	8.4249591108801	-0.38240156963578
2.3178923476779	4.1926464382665	0
2.5373292327812	4.4716333182052	-0.48281884804687
2.3342974478463	4.0018571812202	-0.30572640106363
1.9994701911036	4.4258543307655	0
4.8968211033092	12.507755029533	0
5	12	-0.2857142857143
5.2932790228536	12.494788035524	0
0	0	-0.2857142857143
0.54768630893449	0.55020446432687	-0.60775225926193
-0.16846798780902	-0.24002860812406	-0.65332445545953
-0.28063481777066	0.41453578455018	-0.44890469943706
7.7	3.575	0
7.3102059000399	3.7470939102263	0
7.7	3.6732286664853	-0.53772532608145
7.3176226410905	3.2857280588852	0
-0.7	-0.10798167686939	-0.47517111104905
-0.7	-0.57707899562378	-1.1376990549501
-0.7	-0.61986630133594	-0.43486724047509
6.3962361866998	10.611290418241	-1.3182185489848
6.565939673393	9.5694509864085	-0.57379796778735
7.1295911592009	10.496363016677	-0.48219980545192
6.3839624611364	10.341052129245	-0.35036617584397
7.7	14.3	-2.5
6.7623683783591	12.987112326146	-2.233077027779
7.7	13.059020885286	-3.3539705522597
7.7	13.327367479896	-2.129915020979
1	6	0
1	6	-0.2857142857143
0.93236760237426	6.49128333619	0
1.3454573625665	6.353105459937	0
2	5	-0.2857142857143
2.1684298754346	4.7403793023811	0
3.0226729813355	8.4836106439452	0
2.5164096947204	8.910651700233	-0.41109082170818
3.4071201441719	8.4167381876838	-0.59109415332551
2.5374808587914	8.1383747261781	-0.35604109466584
6.2778911301719	14.3	-0.61136458754231
6.2225356773765	13.691717475418	0
6.5208076177088	13.495118289851	-0.49928801204061
6.7358646795693	14.3	-0.39005656748015
5.7965188279432	13.281940723964	0
5.5320359851605	12.925291312368	0
5.353113789845	13.264183036004	0
5.5919457801018	13.101154188917	-0.33537516396337
7	10	-0.2857142857143
7	10	0
6.5010306427949	10.010760669106	0
6.8196744207924	9.5136576917357	0
7.7	1.1375	0
7.7	1.6430719769933	-0.42557297445049
7.1939383721229	1.4724531054162	0
7.7	1.625	0
6.3572581294301	1.4772201134971	-0.96507376287322
6.5574763981385	0.84898833643366	-0.48332647821142
6.7774291048203	1.7003141153393	-0.4123635555875
6.1433933962903	1.4220674799247	-0.28622251631329
-0.7	9.1984657118068	-1.9278839451739
0.33291529395702	8.3305676904572	-1.2970017952003
-0.7	8.1442617177323	-1.0898260028896
-0.7	7.644268062563	-2.0766032868031
4.508194357046	8.6258793740749	-0.60770874662543
5.0095189690676	8.5009469809039	0
4.7609249278557	8.7686419230913	0
6.2306672701993	2.67753718	0
6.6360398560532	2.4670661479797	-0.44686919005428
6.4910302172834	2.4939022421641	0
6.1550873755842	2.4572757142813	-0.33684154297057
1	1	0
1	1	-0.2857142857143
1.4901571161019	0.99574153349402	0
1.1736530561382	0.72346383359363	0
2	4	-0.2857142857143
2	4	0
1.6440539242474	4.1532454240512	0
7.7	6.9501255673919	-0.74418826283982
7	7	-0.2857142857143
6.7521552376889	6.497772044976	-0.66059363300197
7.7	6.3887218416049	-0.46884913673037
5.9482896260331	7.5800048202495	0
6	8	-0.2857142857143
6.3095291646476	7.6896230263426	0
6.1432247512519	7.3579252770212	-0.41388970597853
3.501272057481	12.437082442362	0
3.3297831413816	12.805427976196	0
3.6823393063421	12.851671876304	0
1.3671388209093	10.633374397873	-0.4152980605108
0.95248763025238	9.835503527633	-1.7808732395437
2.3518021577517	10.495200039554	-0.50930668321109
1.5373497846005	10.021005779616	-0.41781002197689
6.2054585007625	14.3	-1.3884356875417
6.9442913034148	14.3	-0.89278753613404
1	8	-0.2857142857143
0.54167473049383	7.7707286368021	-0.37916050195481
0.44975345341211	8.3808810318019	-0.31136669048163
1.022076618805	8.4121844676845	-0.45670843222423
0.89173681858685	4.6122796653579	0
1	5	-0.2857142857143
1.2386083631299	4.6841794176855	0
1.3923592539172	4.7130963353432	-0.25978315417498
6.4242299347383	5.6840176993625	-0.35514079575845
6	5	-0.2857142857143
6.3424541740313	5.2754910113697	0
6.0447933133998	5.5049876953384	0
5	2	0
5	2	-0.2857142857143
5.5190673049038	1.9208326821789	0
5.2306444928855	1.6547875838902	0
5	13	-0.2857142857143
5.257359886178	13.540476325965	-0.63012071696907
0	6	0
0	6	-0.2857142857143
0.066757795936057	6.5008369551487	0
0.29243888553297	6.1743316976873	0
7	9	-0.2857142857143
6.5033796411008	8.9981073418213	0
6.5607922823332	8.4440251373986	-0.63122800754088
6.811726958696	8.7028726276344	0
7	5	0
7	5	-0.2857142857143
6.4986646723997	4.9192017057136	0
6.7141996182955	5.3303468264748	0
7.7	9.5988491781319	-7.4736716195817
3.1507199964473	10.394874003632	-10
4.8663216648816	7.3792654266676	-10
5.1015502438684	11.553440122249	-6.405163284031
7	7	0
6.9589015254993	7.4884372736447	0
6.761634669635	7.2408783569561	0
6.0574437090791	0.20878539066113	-1.8779478182653
4.9838025543493	-1.3	-2.1179854334408
6.0308685444023	-1.3	-3.5425074203685
6.440522236286	-1.3	-2.0103523001383
3	2	0
3	2	-0.2857142857143
3.0105846506	1.4855923993349	0
2.6480485575569	1.6700894103009	0
5.0527203000088	13.535479310798	-1.5373151531841
5.0246691847863	14.3	-1.036131499603
4.1300067609037	14.3	-1.2024507502556
4.4744197407865	13.547407617085	-0.63586628370479
2.5813517996865	9.6286485974984	-1.0236151505326
2.2955236368793	9.5881134365907	-0.29154811067367
3	10	-0.2857142857143
6.4248505083522	12.522044346884	-0.42559946143008
6.465073985677	12.51782996062	0
6.1644652963082	12.36965297069	0
6.3832046574853	12.135664356038	0
2.9908655166747	12.498069465114	0
1.984703560175	7.5906357794687	-0.50777967523709
1.0508409188237	7.354634772545	-0.95680796450018
1.4515039911109	6.5829264157992	-0.56173008002516
1.3866216751759	7.5118935788728	-0.35488362790971
2.45	14.3	0
2.2168273415577	13.627179222019	0
2.4554693735383	13.497784276817	-0.39727655195048
3.032551925238	13.762466584345	0
6	11	-0.2857142857143
6	11	0
6.4843452951013	10.966514281357	0
6.2440599782187	11.234710090977	0
5.5	-0.5576923076923	0
5.247952850371	-0.29481663567353	0
5.5452342683804	-0.096294524539033	-0.49623355575102
5.1016398375367	-0.61489919294387	-0.38960315167385
2.3232496140345	4.0110297188843	-1.3835068702753
1.6586320571652	5.8268322896535	-1.5213554090482
0.71002746520551	3.976198472286	-1.505315421377
1.3296414347056	4.9089994064226	-0.82629172929831
5.6	14.3	0
4.6510156691765	14.3	-0.56274723813486
-0.090060726359069	5.5363033123106	-0.44581840212762
0	5	-0.2857142857143
-0.38456492153953	5.1805342841446	0
-0.7	5.0205501441189	-0.32507149572551
3	13	-0.2857142857143
5.1848675157348	3.2965660830064	0
5.4046165570399	2.9501485228537	-0.43988698776777
5.486289771732	3.4981838484395	0
5.4682750147717	3.0660382780841	0
0	8	0
0	8	-0.2857142857143
0.5178658825659	8.020802151125	0
0.25864598874121	7.6639427314904	0
6.7098208972434	7.2950601162224	-1.3269022195366
7.7	7.949747446039	-0.91833665053736
7.1577047253729	7.4844276204668	-0.64272934527953
4.5892004575887	3.5369189576522	-0.55981654583505
4.4420188491858	3.4660037233365	0
4.711527897636	3.7375259681419	0
4.3494632088922	3.8023533541114	0
4	6	-0.2857142857143
4	6	0
3.9913416390327	5.4988534517732	0
4.5093195747582	5.724109532591	0
1.4	14.3	0
1.5	13.55769230769	0
0.89284349994875	13.714781914708	0
1.2292962491126	13.670420041977	-0.37788942865261
4	9	-0.2857142857143
4	9	0
4.5502440226935	9.051086551406	0
4.2963154051231	9.3907765114078	0
4.5321110402369	7.5028925212181	-0.60552533206341
3.5085861108931	7.3893844432383	-0.64873189634878
4.0050480592533	7.4977657988521	0
4	8	-0.2857142857143
5.8961095330637	-1.3	-1.0125722125019
4.8982045728458	-1.3	-0.82217786726149
5.2296982103621	-0.31621891710017	-1.0679345669244
4.9010483556055	1.478997710586	0
4.5631533182214	1.9074133665015	-0.41231302454656
5.0320642355688	1.4518180616801	-0.36509190625555
3.5357179442866	0.46434418042464	-0.60031716899974
3.9407498163335	-0.4411178910574	-1.1087857494349
3.2826824657074	-0.47747544834602	-0.50866572047373
2.802260468126	-0.22902113419037	-1.4542342115515
1	13	0
1	13	-0.2857142857143
1.1191337005982	13.329221525091	0
1.4884720276527	13.02962190928	0
-0.21681247778723	8.5792000107362	0
-0.35118339610893	9.0917088673227	0
-0.7	9.0968147603684	-0.35256881313688
-0.7	8.9375	0
0.51662331659314	-0.40156299802931	-0.67799391089861
0.13474046208011	-1.3	-0.85683826964205
-0.16941603187845	-0.57512411281067	-1.4019543009948
6	13	-0.2857142857143
6	13	0
5.8068477026831	12.499749736815	0
6.1890713266052	12.67695534294	0
2.5984255358496	5.4578875982232	-0.67264342113488
2.2172109403706	5.4325217687574	0
2.4824672258873	4.9705265694472	0
2.6598112065826	5.3330483814808	0
-0.7	0.5146532048839	-0.51418317722913
-0.7	1.0492756199945	-0.88024243711367
-0.37698118088761	0.89350663208132	-0.33360419980628
-0.25096134668857	0.95145340086689	-0.90448711690516
6	2	-0.2857142857143
5.4002158317804	1.7678073061348	-0.50898482673054
5.8183999242367	2.5164331321023	-1.0840550371572
-0.13917028340788	5.5182991349521	0
0.31578338747353	5.7567158690792	0
6	12	0
6	12	-0.2857142857143
5.513035862904	11.994753403328	0
1.5285536174902	4.2362319729344	-0.43851980589517
0.57100063419133	12.499134596467	-0.56842257570583
1.2565986295401	13.42724014175	-1.149557674079
1.4486633887383	12.69302170761	-0.31714242590465
6.65	-1.3	0
6.903739311401	-1.3	-1.0953527719967
6.3980205255852	-0.38130956989248	-0.5855507841991
7.2175457166608	-0.5710098692386	-0.51938212652516
3	7	-0.2857142857143
3.5055774955602	6.7395375676091	-1.4094768265058
2.383927159844	7.4535505157878	-1.0620490471275
1	4	-0.2857142857143
1	4	0
1.2222221827385	4.2954008280594	0
0.82345085295407	4.2815033897546	0
5.6	-1.3	0
5.790373644402	-0.65252487431205	-0.38521635467031
[...]
CELL_DATA 5483
SCALARS Coverage double 1
LOOKUP_TABLE default
1.5031613053048 0.74759340827646 1.4076878653004 1.5707926819363 1.4448448739747 0.87718716867394 1.1376971515937 0.66870177250254 1.1126603524088 0.21480093894058 1.8416057208088 1.6611379694349 1.4961790193136 0.72684379198434 1.2488240493358 1.7895974969667 0.97905283891353 1.1450534072024 0.62354576939606 1.6538202686894 1.4391979428153 1.7074511871525 1.8952915511807 1.0695438498562 1.5974200150617 1.3921341781818 1.2417233716005 0.58765116627231 1.3491979503437 1.6520934554338 1.5699027170835 1.7537503972585 1.2097527469675 1.7830462497052 1.4824856822167 1.7741349779961 -0.36915758706801 1.805638278476 0.27229659699588 1.7602053315217 0.62414964744907 1.3714676337925 1.3897395569799 1.4612249246593 1.2899926370154 0.89168948671506 1.8224672102342 1.0352289372226 0.94508669785525 0.57160713018512 0.69268944633436 1.2808414836144 1.3805674074814 1.5289867261822 1.4947064501631 0.95902269708271 1.5001700718326 1.8715528333605 0.86125767681455 1.838277442348 1.5231937106251 0.63041717273325 1.4247946707655 1.5216836180919 0.73045602976697 1.5838639486916 1.1543111848532 0.63913726874216 1.7139829500457 1.5723522748208 0.83026811358268 1.0915948924692 1.7809446331345 1.6911305079763 1.5367250203321 1.0360287080965 0.62336448473007 1.2731112903328 1.9316205023489 0.64297838314529 1.1570695343721 0.80294298475827 1.5056368455196 1.2183860992037 1.4994459507332 0.99953088596881 0.60957497671432 1.831561304928 1.7697989673982 1.553330217717 1.1828954972329 1.2596397467856 1.2773985321708 1.2164409593508 1.459426149028 1.6255372637906 1.5843128454026 0.97733803181285 1.643757752641 1.6757809385861 1.2950301765428 1.8034165223739 0.9641031284577 1.5999842199407 1.1187111519232 1.5471047778386 0.31842783122425 1.1363846785442 1.8153643873804 1.884966046745 1.7002179883247 1.2898582765602 1.4803416797738 1.4783223731566 1.1606724593675 0.74467021243342 0.94965174635357 1.0182984160894 1.5629149944694 1.2017162635595 0.95857881279328 1.6181423489696 1.2500865979517 0.43068856303338 1.2682844062524 1.78929659617 1.058764382064 1.8083624437513 1.3291156773078 1.5425997833377 1.5022091184171 -0.19696734672353 1.0672028016233 1.4199948297585 0.81824093890275 1.5919364494825 -0.39568012384722 1.3538017886335 1.3459757050642 1.8657579306206 0.56150182040898 0.17260606808964 1.7922152289833 1.684679461204 1.5112790713725 1.4209523925475 0.87895923245077 0.7020528524291 0.93802693875979 0.5938660134444 0.37363655098447 1.8640002441285 0.81997448513769 1.2073317086935 1.3985611633227 1.6363901043153 1.4716266670244 1.0527483771218 1.7353540426725 0.78240635202811 1.4298257387077 0.75373076559856 0.96021351165399 1.5906472853036 1.8708837323841 1.6499183806766 0.6008133678964 1.8152476072377 1.4350772486935 1.8054647653118 1.5890605440431 1.1747675259505 1.2891310407223 1.8388740804409 -0.074951034078767 1.8711228515666 1.9214154283726 1.7665353102519 1.689923542906 0.17877078382023 1.5531199124897 0.41601895659503 1.1198124683081 -0.068680211607952 1.2145422450605 1.8717876462049 1.4006236497638 1.5685203716882 1.8287673500494 1.3325608977874 1.8713775422208 1.3332990759109 0.73938668909425 1.6043691807956 1.2714073957395 1.0779019155527 1.6423685891689 1.5419425914612 1.4005662096871 1.8554202886038 0.55499312315714 1.9302116396511 1.4781460693847 1.5044455442048 1.9299131427792 1.6668016655149 1.7040199396492 1.4762542690128 1.0794632952733 -0.419278396578 1.3770284328676 1.0744325402871 1.1777383808351 1.8930659411847 1.8612662167357 1.8747870603567 1.8479991087236 1.6027130518602 0.86764513214993 0.86019224868037 1.3746109700386 1.7368723470084 0.5635334473202 1.888958497588 0.72989539834768 1.6777113625077 1.5630350910648 0.85645054304855 1.9244580799794 1.1538860694649 0.91978497200683 0.8818659375198 -0.12425908319736 1.8640755342205 1.4568088345167 1.1701166118167 0.57350930917033 1.7540512296878 1.7063707106383 1.5430012380154 1.7657291653269 0.7054657635908 1.5869381345694 0.97100455574846 1.582749253786 1.8436937055337 1.3259246262404 1.5342467263369 0.54715583534931 1.6184618885146 0.69067224478848 1.6566509387593 0.47524253357156 0.22117331669761 0.03409201495061 0.4574719865679 0.88410659267462 1.8664363205862 1.3142499119636 1.8731100000906 1.0586984854792 1.0758362346475 1.5381284971136 1.3523392643862 1.8051942743698 1.8404370576182 1.4590763184607 1.8606167906529 1.5439166377484 0.74510019717955 1.8593845727968 1.8962991873787 1.5561653386834 1.4333855690335 1.8567025732253 1.555764650116 1.859416223755 1.5878083389565 1.5907278520266 1.7270031732541 1.6554881774988 1.9489038435157 1.4458625821463 0.54168055606094 0.51065019096479 1.2773426687101 0.97128472916774 1.5785186420548 1.7450160853991 1.3039034904452 1.5338621002918 1.8458640555151 1.7237321969292 0.57900540802805 1.470847014472 1.702691396282 0.72671771048609 0.30655841722836 0.84816796044462 0.50914195950201 0.45632370406016 1.574390995967 1.4052812405424 1.0189480697411 0.82268072217256 1.119955197257 1.6270902933295 1.3062449729199 1.5372147909379 1.1113234595003 0.7455299319363 1.5910606261336 1.2777799471406 1.2548279177802 0.6449108898653 1.167788583874 1.5248580328883 1.0826030947794 1.4478221656876 1.169744503345 1.8261487074578 1.5596457373386 1.5408891958317 1.4231680682812 1.9194636281587 1.2687387143983 1.6966581360735 1.5584446874628 0.47276849551993 -0.60715361343926 1.6370042241733 1.2062965809531 0.73934468483967 1.5415761090091 1.4979901739132 1.8102347084405 1.8864992051826 0.96758217136307 -0.5636376807096 0.85685542881903 1.4137447438592 1.2255456239265 -0.22795596673188 1.0529950054541 1.0553674328751 1.4176323581152 0.89568388184849 1.5694403485954 1.3755135697749 1.2513667445936 1.5343762955616 1.7185632091802 1.78052611967 0.60912304175103 1.8830490442902 1.0098875261999 0.13326562974843 1.3160510556133 1.7124977852404 0.50157263895269 1.3072018245383 1.3749682174417 0.72624482230216 1.3825814794417 1.7424888522521 1.4780104032017 0.88510668000845 1.7625488668935 1.677235509907 1.2581792302541 1.3163165200096 0.97759299135916 1.5029903250974 0.2829885238571 0.58837125397983 1.1525910598603 1.2962433874677 1.5247615120174 0.76897497938074 0.37762009259116 1.8232157162704 1.8877117707782 1.9020251695044 1.6066378060669 1.3610956774852 1.8794992123293 1.8288830152953 0.58745683928933 0.83762361649355 1.5233382428462 0.99797422087296 -0.21517182184016 1.5969768950078 1.4178415901155 1.392018169504 1.5832929874004 1.6246945676012 1.471738250563 1.4636480535468 1.5609393363363 1.0834359197792 0.83655060977045 0.87734474597082 1.749783371946 1.9388565088336 1.24516843828 1.3579778514532 1.718259362444 1.8537739144958 1.2744886207667 1.5025498853404 1.5165033159551 0.6658192329992 1.8348398817041 1.4203089562048 1.4481541101505 0.96206627467207 1.562928166369 1.8366219200644 -0.36785700869778 1.5765994007467 1.5164987389108 0.53366733853913 1.4046206777171 1.3613233139324 1.0501928448891 0.20853489424223 0.14867769449956 1.600897972496 0.3195166796585 1.6879575853385 1.3067748223903 1.8112282758036 0.89473831700822 1.7450177985658 1.4450699855346 1.7442380522891 1.8091383445695 1.407136965899 1.1975520007273 1.4280952589938 1.5702495615004 1.2788734427796 1.7551685857103 1.8397423067713 1.5599400300079 1.1382762090689 1.2771445668109 1.1991613092724 1.2404555963632 0.92967301452401 0.69735787893656 1.4553380612499 1.5283800834413 1.7942634970002 1.4799846159267 1.8875835217668 1.4133353768176 1.697560662411 1.4919012976865 1.8949864587185 1.2674553843399 0.99626541526187 1.6003195475562 1.9343906536447 1.517168798441 0.87436382705348 1.3472679786318 -0.23829881995043 1.8456217766842 0.46809973475235 1.8176596628087 1.4817232015156 0.24369615638236 1.5763750303357 1.314840983896 1.0699021892236 1.5014178839678 1.7195177237413 1.854702581182 1.4285195803035 1.47091273534 1.8055594786708 1.6342940872138 1.3760696507167 0.71362472411964 1.594292247266 1.5744452302085 1.5310168505744 0.66645375853994 0.47675233334276 1.4323081168822 1.2346639599279 1.5069843781699 0.83781395974181 1.8497763620824 1.5925996062913 0.82105630654155 1.9354201322775 1.4232119217213 1.0548220425912 0.63140444655205 0.83109371005138 0.98439561203603 0.53310833280971 1.6980391417846 1.6114447864903 -0.0094512126659425 1.3457157471348 1.1608982060565 1.4523003658555 1.3451961477518 1.5399818206337 1.5172552425443 1.8066289127761 1.0423826543732 1.6038816220999 0.76077013205283 1.0751756730131 1.3881370838381 1.6041321283038 1.0965063103171 1.7849686857242 1.6260311449339 1.3188539390446 1.6007271503065 1.435186087766 1.6692379913646 1.5680897575295 1.6226172685229 1.5872342433903 0.41537584909149 1.3155636054765 1.4394512323623 1.8278485400457 0.77324303106026 1.8010462159093 0.8143747052863 0.89599863714396 1.3387243771662 1.7962253504858 0.87515264282751 -0.68738493313267 1.4048526659219 1.5439448978268 1.2740311594947 1.7000951451488 1.4736980170895 0.66436833918737 0.82179674064096 1.8450949789674 0.93413096844998 1.5896209383306 0.83735638163356 0.62783812706031 1.3642300966487 0.56706846930611 1.5683506768522 1.6090444969387 1.5301963127749 0.054988047635952 1.1197701264511 1.6986611800739 1.2014919798007 1.5412674456423 1.4303438256069 1.3908467037464 1.4416683648193 1.0670369913675 1.594156463398 1.5631963060297 1.0212549061245 1.0834294245944 0.25533615636262 1.9150604737436 0.91889361341257 0.33632731525605 1.7417505922515 1.3288028273684 1.6242369381887 1.7013006293555 1.6781036910503 0.64995434602476 0.85183823197583 1.5937091967088 1.3879053348602 1.6570739219129 1.1370304393231 1.4977140764184 0.78133009522105 1.0550730420056 0.86590553908335 1.5110964816695 1.2369213199612 0.676859252155 1.8792995315059 1.6600036672025 -0.5484848223319 0.13230777298255 0.89242026850975 1.6567811238962 1.7575848073585 1.554910667106 1.8448240366813 1.1009900693068 1.4526313617259 0.61533997362697 1.6825945091118 0.37538085738232 1.895769195499 1.1093936544708 1.5667415394009 0.89937201711745 1.613574651031 1.4997438527823 1.3537580030986 1.4338653126122 0.35343709087259 1.8584048798608 1.142193727592 1.4990880190081 0.45533776261978 1.4706167424639 1.5823989043918 0.95376703048827 1.3608350543624 0.88047603233736 1.695150146727 1.0954377002033 1.4728986945131 1.3787207155536 1.2671381778289 1.8680139158477 0.69347925121982 0.41321917553112 -0.52165967748183 1.781470386378 1.123108363845 1.050865356975 0.75743502958091 1.8233318478177 -0.20196993222631 1.6227180673017 1.5853128063583 1.0980300639134 1.0349992585702 1.7872780608149 1.8778929968117 1.4678314764178 1.5307805942728 1.7946510455373 1.6853673247144 1.8570753262751 0.73126143774957 1.4368576912532 1.8533445192336 2.0527027924973 0.70023337669534 1.4537235605138 1.3652853798098 1.4674929026371 1.5838165215038 1.608752379595 0.62264239013641 1.7420647384424 0.70366964683658 1.1336106977286 1.4730420555848 1.9303248262035 1.1210626081679 1.413303431373 0.11562241207511 1.6829680643388 1.6648822683025 1.1546405973961 0.27704510510686 1.3970407741546 0.71433176367105 1.661731435512 1.1804560589745 1.5067898144361 -0.34386187271932 1.4957822876591 0.67320597788319 0.76968478493402 1.8573808834926 1.2718115789233 1.3139581326745 1.5367486842274 0.46253388257995 1.8708950297812 1.8443613196389 1.5192353055417 1.8311147076302 0.66014116684786 1.4590099651285 1.4117821795742 1.5262443238757 1.0382327014229 1.7976095186006 0.50714721846446 1.2668456530647 1.3865834585868 1.1812373902237 0.80346942558414 1.779203022272 1.5630948662238 1.3840538170789 1.3742762248587 0.70608528305972 1.3916855414081 -0.41114028825985 1.5882776463401 1.0074083189562 -0.27605930769048 0.25733176962572 1.5419084131725 1.7433519340254 1.189229104747 1.3796039862726 1.874004951468 1.534450338931 1.0758891427851 1.6249692202239 0.91806966709723 1.1912924254191 1.4748647609566 0.97069854751135 0.34988454291819 1.409346177951 1.44813131942 1.859472464248 0.75813424882908 1.6695951641074 1.5364501673399 1.4584780180367 1.5691112516575 1.5913617943341 0.19310715029223 1.0003389553616 1.4152509094989 1.0352353653538 1.2379993624622 1.1316850660777 1.7607826849639 1.0537322856174 1.2490705498346 1.4627433437296 1.8006118288621 1.7381655663085 1.7530609288716 0.63770959083132 1.8675198679173 1.4742881435866 0.75518974465076 1.1864424007678 1.4965974014017 1.607220430147 1.1121996459169 0.83696240148612 1.4458129734194 1.576207823203 1.9289839117179 1.4279633116707 1.3025854171219 0.79759712215261 1.4075492438971 1.5682113293202 1.5842023171448 1.8199272364377 1.4147206972371 1.5505683298328 1.1305123092547 1.5438451819269 1.6000249434193 0.82542418665563 1.9118488923485 1.3932605282114 0.56980804594529 1.5992058507754 0.8793533843598 1.5249155362854 1.2205885760033 1.735109340493 1.2014603501189 1.2094800927157 1.5645212447061 1.1467617171789 1.6595606297388 1.8585498933573 1.3213141244291 1.6480941218255 1.4575837583136 0.48096387397622 1.0319630083963 1.7911546210858 1.7308835677596 0.14892820113284 1.5924831407664 -0.55204258690501 1.3950887571345 1.7285241684486 1.3005774905245 0.61199432967741 1.7726776119187 -0.70415445490804 1.7381371154938 1.3243982051951 1.4387579415472 0.73247616630427 1.175169880935 1.3877992134032 1.0426975150793 1.4659851230463 1.0777104455373 1.736146110411 0.77467770686138 1.4222886094709 1.5062864555902 1.2114915962427 1.3412353654611 1.5860269149528 1.5701514833995 1.4659098306907 1.1008637257403 0.62121062489219 0.75431883813228 0.63150283914756 1.5316994149425 1.5748878910158 1.5893821083072 1.0690874647619 1.6753947300266 1.5513616077503 1.1026398661638 1.5907703217126 1.4425943433036 1.6038849369089 0.50869770413581 0.96276667103428 1.6056316719728 1.2685924164086 0.91476590877647 1.3069612567875 1.3484224458052 1.0597738710511 1.275690720329 1.5362236237868 1.5072560405445 1.202763991328 1.8687042124482 1.8269191823746 1.0852006465086 1.3817584071982 0.7246031491168 1.3388160261921 0.6689764602524 1.645926411513 -0.20273623534046 0.67620254215055 1.535852957816 -0.26994595182555 1.6669186129847 0.70704405565436 1.2867921695015 1.3142184612436 1.4337539017559 0.8178171958346 1.4076578208889 0.47579780309704 1.2480028428331 1.5725951311591 1.2700650175826 1.5494915469888 1.5135596271922 0.96997972693479 0.80338838104165 0.43582025105121 0.78130856510011 0.54696611209965 1.8403838769927 0.45135175608248 0.92213053370853 1.5266816745298 1.2982822475839 1.543445642683 1.7539851906507 1.5665279613613 1.6032578638367 1.2370143619762 1.392222638279 1.5176437303175 1.539326796302 1.6892158754578 0.55473953720155 1.5787799761786 1.5707345594224 1.1744934575814 1.1490591221687 1.6579477285227 1.9090366466998 1.6003115609453 1.7208005420423 0.66522786729851 1.237956325717 1.8108622621788 1.6113271125273 1.2884339505627 1.6762758712087 1.0238571592056 1.3750858706934 0.41392622895412 1.7297764396887 1.3014317277647 0.68108175333743 1.4656616492338 1.5243459111262 1.415904276336 -0.15518873250633 1.2793157588074 1.5802982870984 1.8700995563782 0.32453442570096 1.7733993295876 0.81086149316353 0.2176465724537 1.2095308177457 -0.45768741357513 1.7106675225369 1.9172572345749 1.4267036760354 1.0029693488201 1.5102409622461 1.7356707937751 0.39431033968406 1.5838037483127 1.4900841104406 0.22258532814988 1.4474682448484 1.3493009737 1.6408002043446 0.95383046578088 0.53044875090661 1.4347565011848 0.6182346658196 1.2612194413265 1.8757201335536 1.3584879829485 1.4965754952981 1.3248682257224 1.619538230746 0.35229711322728 0.39834144829948 0.97767748678159 2.010494371215 1.1209403687605 0.62261802311752 1.5304358512068 1.5763125193647 1.054742328436 1.3603626278857 1.2426703028891 1.3460169186696 1.5770073610613 1.4807939443673 0.74250023747399 1.2908987915513 1.3371755774897 1.6182360605361 1.8867861933634 0.60206680675881 0.88028635111051 0.47936530622984 1.5170994135083 1.3193083068081 0.80007318428054 0.98700710475618 1.7690697561413 0.4999433918148 1.188007267046 1.0586220969028 1.2854817192492 1.7430748041113 1.2402233364058 1.1509921048562 1.7923385002039 1.8848503929464 1.5367617419371 1.7406779837862 1.6125499891906 1.2366505239099 0.78886036169149 0.75041510779722 1.4867316500783 1.0652864667584 1.1871090971285 1.4900821983251 0.76222565888584 1.6503969156329 -0.14926282177187 1.8057211935735 1.6093326646043 1.3590331240849 0.53769663125876 0.6092411603541 1.761605776614 -0.025317618636231 1.1495584476061 1.3093132933774 0.60730867907146 1.1561569047291 1.8570966157772 1.8050067397914 1.5060548838364 0.6690294207714 1.713193555678 1.7393720553349 0.32168615155194 0.91258404417786 1.639836239374 1.0102701931154 1.5512620951276 1.5456184915342 0.93889754095033 1.3754765613449 1.2346230076687 0.73708178536003 0.64454867123698 0.62289429776075 1.7754514228611 1.8482144343828 2.4783072125013 1.5645513037668 0.88204675165941 1.4176876174372 1.4865085107978 0.9347248825644 1.5093324925513 1.7138767807108 0.50111621578637 1.7446060957391 0.86770706060386 1.7420383787881 1.5397447384919 0.7555799840847 1.1215433496179 1.5099612343543 1.4038588104714 1.2378710739022 0.89211066115895 1.65213209996 1.8121552496657 0.8518426059253 1.6949416460634 1.7459707372245 0.46646715965562 1.9800689386827 1.4203667790259 1.1832913671676 1.0737322382064 1.1215295033838 1.5788152403436 1.4734378926281 1.7120804014894 0.8811649187349 1.7903431272323 1.2955098612542 1.4381143355513 1.3297492880004 1.0368940778161 0.6540587350511 1.9007789785986 1.8201892080325 1.4382147087182 1.9182003975388 1.0613389192412 1.0316174231108 1.5121075658277 1.4967844609019 1.3529902325685 1.3563000325754 1.5009771297528 1.0488957383754 1.807714594098 1.857226320468 1.4049034339407 1.0445187958719 0.8002838679645 1.4163663365126 1.2621094099533 0.31840558313079 1.5614694294915 1.7212794297766 1.2838968865967 1.861595611007 1.3525893115164 1.0713617427198 1.8829436551143 1.5202169619088 0.61746300108163 0.73230270542328 1.2849873885864 1.8339431344462 1.1802906967003 1.032732847388 1.5303555290203 1.3161900639234 1.7176850669368 1.5908221991354 1.2188192215966 1.3494578021563 1.7251418201564 0.88784806365022 1.5957404873416 1.6323703200643 1.8785138688688 1.4847857561708 1.2725796305042 1.774885115035 1.7473641048779 1.8087560116334 1.5176226242732 1.458377982085 1.4849047249544 1.6023672551238 1.4745193230858 0.93006790489218 0.032312583137941 0.88820557561761 0.78300244854227 0.76741045331743 1.5802562209812 1.2407498309669 1.7694548109788 1.2372158119822 1.5272636946254 1.2698429050623 0.60571401939468 1.7680450993025 1.5478306952813 1.6367095744278 -0.38093280720802 1.8504604038425 1.612005327777 1.0354050880301 1.8360577294527 1.1939018659077 0.98526940966669 1.7895268225202 1.2999976157226 0.59707120267802 1.4561716318706 1.1961081497925 1.0974953811842 1.7859303643084 0.94222085926632 1.6151416937028 1.3196555969927 1.3363809778408 0.97939678916598 1.7791425081677 0.22442151562626 0.69385598278914 -0.49589955206314 1.3829728279776 1.4271981023032 0.78833211245721 1.0335193443743 1.5852947285942 1.6724002605054 1.4090266956585 1.6202280592423 0.88230082667374 0.85858369755061 1.8301754592315 1.749777364801 1.4940378074089 1.5815322892034 1.4580437775566 1.4187511941062 0.59963194144048 1.3814405790651 1.6769275792041 -0.15055427838988 1.3361191507799 1.8813310776788 1.4385536332222 1.413443976718 1.2460634131755 0.87290999412955 0.45369016061656 1.5440375591864 0.75405694390809 1.377200242981 1.3982365299657 1.5454439075614 1.6076945995198 1.793375748201 1.8217259779155 0.30767134132212 1.4674508307734 1.1038608705405 0.43348195099119 1.8144311236717 -0.47866271834513 0.57829843930088 1.2732770580633 1.7128188334369 0.89769213524761 1.4941142004423 0.55705565959693 1.4327222757497 1.0264704294587 1.2883941307959 0.97228280064114 1.0270561593841 1.8895448550233 1.4615849916054 0.73377818005252 -0.095556258252249 1.0688318062816 1.3181060816736 1.5537302811723 1.5067708516573 0.95569663659614 1.8436654440257 1.333261379216 1.504245035657 1.4509219662544 0.73651785737354 1.5633388764819 1.5219771983941 1.