# vtk DataFile Version 3.0
d-3__ created by libgimli-v1.5.0-1-g5991b6ac
ASCII
DATASET UNSTRUCTURED_GRID
POINTS 1483 double
3.3802423101098	12.435481574566	-0.57001420684378
3	12	-0.2857142857143
3.4959596309848	11.998298039034	0
3.2490070092203	12.168560129388	0
6.0395510135596	13.367156253372	-1.2757999763971
6.5930002103947	12.023472734859	-1.2922192071349
5.4998599382803	12.552571297657	-0.59337769664261
5.29662096318	11.932351047571	-1.5392209346082
5.6153020589615	9.1440579133635	-1.0774777831171
5.7237069713611	8.5589744845549	-0.30827017969781
5	9	-0.2857142857143
5.3151026533923	8.4249591108801	-0.38240156963578
2.3178923476779	4.1926464382665	0
2.5373292327812	4.4716333182052	-0.48281884804687
2.3342974478463	4.0018571812202	-0.30572640106363
1.9994701911036	4.4258543307655	0
4.8968211033092	12.507755029533	0
5	12	-0.2857142857143
5.2932790228536	12.494788035524	0
0	0	-0.2857142857143
0.54768630893449	0.55020446432687	-0.60775225926193
-0.16846798780902	-0.24002860812406	-0.65332445545953
-0.28063481777066	0.41453578455018	-0.44890469943706
7.7	3.575	0
7.3102059000399	3.7470939102263	0
7.7	3.6732286664853	-0.53772532608145
7.3176226410905	3.2857280588852	0
-0.7	-0.10798167686939	-0.47517111104905
-0.7	-0.57707899562378	-1.1376990549501
-0.7	-0.61986630133594	-0.43486724047509
6.3962361866998	10.611290418241	-1.3182185489848
6.565939673393	9.5694509864085	-0.57379796778735
7.1295911592009	10.496363016677	-0.48219980545192
6.3839624611364	10.341052129245	-0.35036617584397
7.7	14.3	-2.5
6.7623683783591	12.987112326146	-2.233077027779
7.7	13.059020885286	-3.3539705522597
7.7	13.327367479896	-2.129915020979
1	6	0
1	6	-0.2857142857143
0.93236760237426	6.49128333619	0
1.3454573625665	6.353105459937	0
2	5	-0.2857142857143
2.1684298754346	4.7403793023811	0
3.0226729813355	8.4836106439452	0
2.5164096947204	8.910651700233	-0.41109082170818
3.4071201441719	8.4167381876838	-0.59109415332551
2.5374808587914	8.1383747261781	-0.35604109466584
6.2778911301719	14.3	-0.61136458754231
6.2225356773765	13.691717475418	0
6.5208076177088	13.495118289851	-0.49928801204061
6.7358646795693	14.3	-0.39005656748015
5.7965188279432	13.281940723964	0
5.5320359851605	12.925291312368	0
5.353113789845	13.264183036004	0
5.5919457801018	13.101154188917	-0.33537516396337
7	10	-0.2857142857143
7	10	0
6.5010306427949	10.010760669106	0
6.8196744207924	9.5136576917357	0
7.7	1.1375	0
7.7	1.6430719769933	-0.42557297445049
7.1939383721229	1.4724531054162	0
7.7	1.625	0
6.3572581294301	1.4772201134971	-0.96507376287322
6.5574763981385	0.84898833643366	-0.48332647821142
6.7774291048203	1.7003141153393	-0.4123635555875
6.1433933962903	1.4220674799247	-0.28622251631329
-0.7	9.1984657118068	-1.9278839451739
0.33291529395702	8.3305676904572	-1.2970017952003
-0.7	8.1442617177323	-1.0898260028896
-0.7	7.644268062563	-2.0766032868031
4.508194357046	8.6258793740749	-0.60770874662543
5.0095189690676	8.5009469809039	0
4.7609249278557	8.7686419230913	0
6.2306672701993	2.67753718	0
6.6360398560532	2.4670661479797	-0.44686919005428
6.4910302172834	2.4939022421641	0
6.1550873755842	2.4572757142813	-0.33684154297057
1	1	0
1	1	-0.2857142857143
1.4901571161019	0.99574153349402	0
1.1736530561382	0.72346383359363	0
2	4	-0.2857142857143
2	4	0
1.6440539242474	4.1532454240512	0
7.7	6.9501255673919	-0.74418826283982
7	7	-0.2857142857143
6.7521552376889	6.497772044976	-0.66059363300197
7.7	6.3887218416049	-0.46884913673037
5.9482896260331	7.5800048202495	0
6	8	-0.2857142857143
6.3095291646476	7.6896230263426	0
6.1432247512519	7.3579252770212	-0.41388970597853
3.501272057481	12.437082442362	0
3.3297831413816	12.805427976196	0
3.6823393063421	12.851671876304	0
1.3671388209093	10.633374397873	-0.4152980605108
0.95248763025238	9.835503527633	-1.7808732395437
2.3518021577517	10.495200039554	-0.50930668321109
1.5373497846005	10.021005779616	-0.41781002197689
6.2054585007625	14.3	-1.3884356875417
6.9442913034148	14.3	-0.89278753613404
1	8	-0.2857142857143
0.54167473049383	7.7707286368021	-0.37916050195481
0.44975345341211	8.3808810318019	-0.31136669048163
1.022076618805	8.4121844676845	-0.45670843222423
0.89173681858685	4.6122796653579	0
1	5	-0.2857142857143
1.2386083631299	4.6841794176855	0
1.3923592539172	4.7130963353432	-0.25978315417498
6.4242299347383	5.6840176993625	-0.35514079575845
6	5	-0.2857142857143
6.3424541740313	5.2754910113697	0
6.0447933133998	5.5049876953384	0
5	2	0
5	2	-0.2857142857143
5.5190673049038	1.9208326821789	0
5.2306444928855	1.6547875838902	0
5	13	-0.2857142857143
5.257359886178	13.540476325965	-0.63012071696907
0	6	0
0	6	-0.2857142857143
0.066757795936057	6.5008369551487	0
0.29243888553297	6.1743316976873	0
7	9	-0.2857142857143
6.5033796411008	8.9981073418213	0
6.5607922823332	8.4440251373986	-0.63122800754088
6.811726958696	8.7028726276344	0
7	5	0
7	5	-0.2857142857143
6.4986646723997	4.9192017057136	0
6.7141996182955	5.3303468264748	0
7.7	9.5988491781319	-7.4736716195817
3.1507199964473	10.394874003632	-10
4.8663216648816	7.3792654266676	-10
5.1015502438684	11.553440122249	-6.405163284031
7	7	0
6.9589015254993	7.4884372736447	0
6.761634669635	7.2408783569561	0
6.0574437090791	0.20878539066113	-1.8779478182653
4.9838025543493	-1.3	-2.1179854334408
6.0308685444023	-1.3	-3.5425074203685
6.440522236286	-1.3	-2.0103523001383
3	2	0
3	2	-0.2857142857143
3.0105846506	1.4855923993349	0
2.6480485575569	1.6700894103009	0
5.0527203000088	13.535479310798	-1.5373151531841
5.0246691847863	14.3	-1.036131499603
4.1300067609037	14.3	-1.2024507502556
4.4744197407865	13.547407617085	-0.63586628370479
2.5813517996865	9.6286485974984	-1.0236151505326
2.2955236368793	9.5881134365907	-0.29154811067367
3	10	-0.2857142857143
6.4248505083522	12.522044346884	-0.42559946143008
6.465073985677	12.51782996062	0
6.1644652963082	12.36965297069	0
6.3832046574853	12.135664356038	0
2.9908655166747	12.498069465114	0
1.984703560175	7.5906357794687	-0.50777967523709
1.0508409188237	7.354634772545	-0.95680796450018
1.4515039911109	6.5829264157992	-0.56173008002516
1.3866216751759	7.5118935788728	-0.35488362790971
2.45	14.3	0
2.2168273415577	13.627179222019	0
2.4554693735383	13.497784276817	-0.39727655195048
3.032551925238	13.762466584345	0
6	11	-0.2857142857143
6	11	0
6.4843452951013	10.966514281357	0
6.2440599782187	11.234710090977	0
5.5	-0.5576923076923	0
5.247952850371	-0.29481663567353	0
5.5452342683804	-0.096294524539033	-0.49623355575102
5.1016398375367	-0.61489919294387	-0.38960315167385
2.3232496140345	4.0110297188843	-1.3835068702753
1.6586320571652	5.8268322896535	-1.5213554090482
0.71002746520551	3.976198472286	-1.505315421377
1.3296414347056	4.9089994064226	-0.82629172929831
5.6	14.3	0
4.6510156691765	14.3	-0.56274723813486
-0.090060726359069	5.5363033123106	-0.44581840212762
0	5	-0.2857142857143
-0.38456492153953	5.1805342841446	0
-0.7	5.0205501441189	-0.32507149572551
3	13	-0.2857142857143
5.1848675157348	3.2965660830064	0
5.4046165570399	2.9501485228537	-0.43988698776777
5.486289771732	3.4981838484395	0
5.4682750147717	3.0660382780841	0
0	8	0
0	8	-0.2857142857143
0.5178658825659	8.020802151125	0
0.25864598874121	7.6639427314904	0
6.7098208972434	7.2950601162224	-1.3269022195366
7.7	7.949747446039	-0.91833665053736
7.1577047253729	7.4844276204668	-0.64272934527953
4.5892004575887	3.5369189576522	-0.55981654583505
4.4420188491858	3.4660037233365	0
4.711527897636	3.7375259681419	0
4.3494632088922	3.8023533541114	0
4	6	-0.2857142857143
4	6	0
3.9913416390327	5.4988534517732	0
4.5093195747582	5.724109532591	0
1.4	14.3	0
1.5	13.55769230769	0
0.89284349994875	13.714781914708	0
1.2292962491126	13.670420041977	-0.37788942865261
4	9	-0.2857142857143
4	9	0
4.5502440226935	9.051086551406	0
4.2963154051231	9.3907765114078	0
4.5321110402369	7.5028925212181	-0.60552533206341
3.5085861108931	7.3893844432383	-0.64873189634878
4.0050480592533	7.4977657988521	0
4	8	-0.2857142857143
5.8961095330637	-1.3	-1.0125722125019
4.8982045728458	-1.3	-0.82217786726149
5.2296982103621	-0.31621891710017	-1.0679345669244
4.9010483556055	1.478997710586	0
4.5631533182214	1.9074133665015	-0.41231302454656
5.0320642355688	1.4518180616801	-0.36509190625555
3.5357179442866	0.46434418042464	-0.60031716899974
3.9407498163335	-0.4411178910574	-1.1087857494349
3.2826824657074	-0.47747544834602	-0.50866572047373
2.802260468126	-0.22902113419037	-1.4542342115515
1	13	0
1	13	-0.2857142857143
1.1191337005982	13.329221525091	0
1.4884720276527	13.02962190928	0
-0.21681247778723	8.5792000107362	0
-0.35118339610893	9.0917088673227	0
-0.7	9.0968147603684	-0.35256881313688
-0.7	8.9375	0
0.51662331659314	-0.40156299802931	-0.67799391089861
0.13474046208011	-1.3	-0.85683826964205
-0.16941603187845	-0.57512411281067	-1.4019543009948
6	13	-0.2857142857143
6	13	0
5.8068477026831	12.499749736815	0
6.1890713266052	12.67695534294	0
2.5984255358496	5.4578875982232	-0.67264342113488
2.2172109403706	5.4325217687574	0
2.4824672258873	4.9705265694472	0
2.6598112065826	5.3330483814808	0
-0.7	0.5146532048839	-0.51418317722913
-0.7	1.0492756199945	-0.88024243711367
-0.37698118088761	0.89350663208132	-0.33360419980628
-0.25096134668857	0.95145340086689	-0.90448711690516
6	2	-0.2857142857143
5.4002158317804	1.7678073061348	-0.50898482673054
5.8183999242367	2.5164331321023	-1.0840550371572
-0.13917028340788	5.5182991349521	0
0.31578338747353	5.7567158690792	0
6	12	0
6	12	-0.2857142857143
5.513035862904	11.994753403328	0
1.5285536174902	4.2362319729344	-0.43851980589517
0.57100063419133	12.499134596467	-0.56842257570583
1.2565986295401	13.42724014175	-1.149557674079
1.4486633887383	12.69302170761	-0.31714242590465
6.65	-1.3	0
6.903739311401	-1.3	-1.0953527719967
6.3980205255852	-0.38130956989248	-0.5855507841991
7.2175457166608	-0.5710098692386	-0.51938212652516
3	7	-0.2857142857143
3.5055774955602	6.7395375676091	-1.4094768265058
2.383927159844	7.4535505157878	-1.0620490471275
1	4	-0.2857142857143
1	4	0
1.2222221827385	4.2954008280594	0
0.82345085295407	4.2815033897546	0
5.6	-1.3	0
5.790373644402	-0.65252487431205	-0.38521635467031
[...]
CELL_DATA 5483
SCALARS Coverage double 1
LOOKUP_TABLE default
1.5064893017487 0.75134575294355 1.4107848457017 1.5777655445079 1.4499159438829 0.88044862412271 1.1423734180087 0.67213562550731 1.1170443161656 0.218621166552 1.85021306273 1.6665767316694 1.499366253248 0.7304134782797 1.2531162170661 1.7946994782534 0.98369396612606 1.1486294352348 0.63212207605171 1.6563083819908 1.4423064796168 1.7151660775077 1.8985467387931 1.0730635830521 1.600679078144 1.3961041884103 1.2472265857926 0.59120512529662 1.3527856552703 1.658705050444 1.5726406655723 1.7599868063972 1.2140672107586 1.791784065067 1.487687689938 1.7797557760375 -0.36856400133067 1.8099935869515 0.27985050588059 1.7594668845153 0.6283616027445 1.3756250876607 1.3937146223076 1.4655055749698 1.2968530995453 0.89588166964103 1.8276161809755 1.0423933003417 0.95310423928535 0.5758674471183 0.69657212323924 1.284791597124 1.383271368387 1.5332395715963 1.5659938259628 0.96192979417962 1.5016725704171 1.8728599699284 0.8636816612663 1.8416809257456 1.5262625447616 0.637428900546 1.4307660237931 1.5261491887508 0.7354473192195 1.5882117218936 1.1679505794021 0.64233989285094 1.7172922019914 1.5766670398872 0.83493781195789 1.0958108496188 1.7875557298026 1.6951422819381 1.54305553688 1.0382298400055 0.63059661966112 1.2775153947357 1.9369315619528 0.65051953747776 1.1645801424133 0.80661406757827 1.5165697331402 1.2246677365043 1.5032513736512 1.0035022550988 0.61406296403056 1.8572996387758 1.7752511985247 1.5571014846753 1.1863180680719 1.2566331356398 1.2811813566025 1.2209801200185 1.4635367364689 1.6298467687922 1.5892566040253 0.98026220125968 1.6489157508289 1.6786889536904 1.2995659649108 1.8072318175557 0.96728194869843 1.603580145179 1.1248667392759 1.5504919671352 0.32510134403267 1.1406428990119 1.816451570581 1.8920883675173 1.7053024855896 1.2931039687654 1.4851884778025 1.4787671579954 1.1637711437107 0.7495776874379 0.95665932094411 1.0251229157323 1.5675947437608 1.2056258517776 0.96268651410621 1.6223852085663 1.2550229460338 0.43404038243245 1.2718960582044 1.7940108168078 1.0647660358074 1.8075746036718 1.3335390843198 1.5438653136524 1.5080240607707 -0.19373586477099 1.0740069318779 1.4231673870872 0.82251320181584 1.5957294074652 -0.39069430114304 1.3617998136094 1.3520696444797 1.8723278075559 0.5671722813083 0.17571301951831 1.7968429188159 1.6892215695559 1.5207624385593 1.4240754755142 0.89198816560088 0.70491312899347 0.93817420180439 0.59672418804531 0.38100706827539 1.8690731661489 0.8222693421885 1.2133331898718 1.4028978898994 1.6460946704674 1.4836682386551 1.0567417141157 1.7386486509126 0.79051994225517 1.4360851097922 0.7570362597855 0.97269133947975 1.5927713575813 1.8751906347137 1.6530702097451 0.60555771116953 1.8180101211959 1.4418213071174 1.8117003181208 1.5920988954618 1.1798467750078 1.2922214782768 1.8406795328978 -0.069491238544752 1.8687703719139 1.9232044430019 1.7709457168102 1.6974628895615 0.18231427479131 1.5574948755292 0.42487602844102 1.1249399499197 -0.067729063983468 1.2211244856214 1.8778312809958 1.4041851768214 1.5736568661978 1.836353275628 1.3363443156298 1.872872234874 1.3376353746645 0.74206676973322 1.6079118742359 1.2799308321309 1.0814735026764 1.6493167528483 1.5462347984442 1.4037787187092 1.8635518039436 0.56030202740612 1.9307765887998 1.4795817231301 1.5075698847064 1.9331168627317 1.6750265214848 1.7112489648017 1.4814314472671 1.0838284841127 -0.41970497815408 1.3815558677016 1.0804236223939 1.1818064600139 1.8969059740301 1.8653034471373 1.883003326642 1.8519983142517 1.6056290603775 0.87154462002976 0.86356768088902 1.3822870525376 1.7414946814942 0.57029369424497 1.8871866873388 0.73255821823433 1.6861347382258 1.5664279631842 0.86332282933773 1.9312569209616 1.1652987229957 0.9234499030846 0.88497594957399 -0.1240121449376 1.8681456506435 1.4680416528118 1.1752763861407 0.58251194602748 1.7592705150756 1.6962016075951 1.5470786409003 1.7700673199897 0.70871854233767 1.590150367908 0.97520283347417 1.5861300952577 1.8479847696081 1.3349095555656 1.5370466466656 0.55069591083254 1.6214646269232 0.69541431538433 1.6760168014779 0.48353885127421 0.22479988006434 0.037007959195483 0.46206102361017 0.88865185842269 1.8708740285247 1.3184798487875 1.8761846248961 1.0654265079452 1.0802185693555 1.5403059145823 1.3567715179404 1.8049603895079 1.8472320491912 1.4631016115798 1.8645084166231 1.5509370029283 0.74972828466689 1.8637456714764 1.899476381015 1.5607551261456 1.4372797095829 1.8535013905385 1.5623247179542 1.8647033248181 1.5951190482659 1.5935733829469 1.7308145742909 1.6563640220842 1.9514706830825 1.4468301586636 0.54511953041477 0.51459589614348 1.283744409318 0.97477380951003 1.5824897350811 1.7584090157998 1.3088196002184 1.5378543388735 1.8560401248883 1.7266756814736 0.58609281999619 1.4768096689341 1.7067996924689 0.73156281323409 0.31270066693817 0.85163468833111 0.51251163993218 0.46135583726961 1.5827894773858 1.4102526320629 1.0288350030156 0.82662382807199 1.1240008621118 1.6328476944923 1.3105484307199 1.5411113998462 1.1183451415732 0.74906652341656 1.5941446553593 1.2828351213189 1.2601012571794 0.64821006174068 1.1742611113901 1.5296833066149 1.089319565187 1.4521258964256 1.1728158895064 1.8324285666442 1.562196998477 1.5451660686019 1.4283119924095 1.9218395986673 1.2729821480783 1.703659476688 1.5648902875626 0.47697771919784 -0.60699708105681 1.6392835176839 1.2144997375092 0.74366035306672 1.5482820542726 1.5007734464987 1.8154730945842 1.8926529907996 0.97333032606305 -0.56593282150736 0.85985414410912 1.4211792764726 1.2320006257971 -0.22527384775147 1.0612538303794 1.0596574756884 1.4220587858591 0.90767749048353 1.5723847926679 1.3804961837942 1.2552441623922 1.5396403911501 1.7265773330591 1.7803911784957 0.61167972915896 1.8868781436588 1.0145144004957 0.13627875380119 1.3210863884432 1.7169718080174 0.50653174836628 1.3130371460596 1.3795964749953 0.73286449827112 1.387163524147 1.7526095262744 1.482538759397 0.88818986729188 1.7699357675317 1.6825253287462 1.2635449955201 1.3205981343734 0.98203218139305 1.5092839370092 0.28636791538232 0.59249760509044 1.1566140366175 1.2986678957525 1.5295139346747 0.77222964738989 0.38384297898032 1.8306836782498 1.8950058944914 1.906502499342 1.6100578948062 1.3652393771332 1.8808469936498 1.8319002593959 0.59092347487668 0.84297444576546 1.5314717820218 1.0026165675262 -0.21267438843221 1.6026722645242 1.424333701333 1.4037148829087 1.5878371125002 1.6266672497385 1.4792065994535 1.4688667161745 1.5698604131534 1.0883342477018 0.83920303849123 0.87734358851161 1.7547007019322 1.9411065807971 1.2500294554635 1.3606414761872 1.7251361105331 1.8535885364332 1.2793652664538 1.5038302934645 1.5208625146808 0.67268640527766 1.8354362208401 1.4275497389876 1.452422143572 0.96663200119205 1.5701663746501 1.8442688748724 -0.36589701266748 1.577875499294 1.5211896302914 0.53623812754928 1.4092479435071 1.3682319530157 1.0546246114651 0.21242030859881 0.15255141140284 1.6029783617505 0.32543759783732 1.6866244160381 1.3098563343722 1.8215545716545 0.89812670771744 1.74752422369 1.4474130628128 1.7493170108087 1.8223909801387 1.4122156775837 1.2010878896243 1.4309849571932 1.5800681976638 1.2829843149512 1.7584751863166 1.8461285750174 1.5636600047556 1.1452115214317 1.2810192842641 1.2043722499121 1.2427364579138 0.93560657205892 0.70011545723699 1.459304267496 1.5329042285619 1.7832065744053 1.4822979156739 1.8925055014686 1.4253936631899 1.701341681667 1.5012503287002 1.8989455948317 1.2724360043159 1.0002079441119 1.6085839038573 1.9340468508131 1.52596505473 0.87955065904587 1.3511546165183 -0.23736680268603 1.8498171362858 0.47071791993081 1.8197183295301 1.4854099149953 0.24747724073764 1.5787329626829 1.3180372635282 1.0728764378228 1.5049250546623 1.723802453539 1.8570785599898 1.4333311552324 1.4743487502922 1.8142826840477 1.6380305598341 1.3805539525473 0.71794625536212 1.6021630544119 1.5774399072354 1.5386313210009 0.66993099055725 0.48177968006654 1.4365413811972 1.2423774034428 1.5147877299385 0.84187239144655 1.8564372846883 1.6018998533404 0.82375833663048 1.944250265041 1.4271214457127 1.0604584657376 0.63595668670169 0.83661426013827 0.98947621358692 0.53770237190464 1.701898817655 1.6138439558303 -0.0050252719015094 1.3490755313744 1.1654595864092 1.4560005202981 1.3529005973447 1.548943359434 1.5258897415504 1.8150868932166 1.0472916381724 1.6058793635559 0.76629293457516 1.077941774823 1.3904120380397 1.6065305813221 1.0999234312181 1.7899284940941 1.6279445119944 1.3258133995752 1.6014104188152 1.439260098943 1.6730856866644 1.571676772263 1.6242585467934 1.5900921250209 0.41938679208714 1.3198211413606 1.4425495643378 1.8285641569939 0.77557485782835 1.806855522261 0.81385501554428 0.89936924203329 1.3464365580597 1.8032867005752 0.87805139142116 -0.68331763722828 1.3881829858177 1.5499989052972 1.2772841573727 1.7036518681636 1.4809849644269 0.66767527057576 0.82477496283126 1.8533144718758 0.94026517398379 1.5930666722915 0.84301549105131 0.63231732125359 1.3657362426315 0.57169708317386 1.575564238684 1.6118981638213 1.5376428026286 0.06113287565475 1.1242822579651 1.7055679699171 1.209973277393 1.5388248911311 1.4352155074636 1.3936810973928 1.4390519943818 1.0750876174984 1.5991004485769 1.5651082080599 1.0273335839161 1.0905832007533 0.2586970730667 1.9156755125204 0.92720653588894 0.33969329466558 1.7461257232813 1.335128786268 1.6282816013496 1.7056111087769 1.682227378979 0.65383463697548 0.85526874591717 1.6003840546374 1.3949687852429 1.6600574520008 1.1433430296667 1.5010367094046 0.78542118008416 1.0586728015528 0.87068799330124 1.5159517676311 1.242002395611 0.68154037691583 1.8779908650936 1.6665481894808 -0.54850698228415 0.13689409209349 0.89741038050032 1.6640435577233 1.7498732265204 1.5554125270117 1.8497005910988 1.1056094668873 1.4557697298798 0.62124889791849 1.6883115386802 0.38156801374138 1.8827360475595 1.1136214222546 1.5745193390084 0.90367066049461 1.615648226428 1.5072877436726 1.3548768736037 1.4411886225463 0.36008570686125 1.864986195785 1.1476226157605 1.5033747325693 0.46091980736126 1.4736262784713 1.5851885524794 0.95926751038913 1.3636887023409 0.88319033608677 1.6963539798304 1.1017238853081 1.4803281088728 1.3825997260121 1.2721655622017 1.872688545732 0.69861843306343 0.41940381902513 -0.52306191132802 1.7856634565619 1.1294264978956 1.0558769653755 0.7613046167759 1.82864357195 -0.2010246098974 1.6267786725344 1.5882082937345 1.1015773233026 1.0378204217017 1.7940760899024 1.8816017893131 1.4711563679033 1.5392745687232 1.800289777547 1.6895772420858 1.8567178158304 0.7347921088608 1.4319924449999 1.865056971223 2.0502261557849 0.70419802004584 1.4576724694065 1.3744588945986 1.4717218674458 1.5890675281474 1.6159088824337 0.62562304491449 1.7451998569198 0.70822400054186 1.1374995909499 1.480986946326 1.9322145533856 1.131754666002 1.4164035013155 0.11976563792967 1.685279990597 1.6687378051559 1.1669157627004 0.28046700575877 1.4015436736049 0.71692627480892 1.6664357884298 1.182914604915 1.5286461852088 -0.34594724709306 1.4987290042949 0.68265355485359 0.77313308644838 1.8615249959991 1.275893558457 1.325582373178 1.5412423519518 0.4645940043838 1.8754459755598 1.8537636785191 1.5235229152942 1.833974803323 0.66381842067208 1.4491092983726 1.5027511373923 1.530635616917 1.0467592426408 1.8034002013835 0.510916394095 1.2711613182613 1.3901420639958 1.1877228021736 0.80689629528211 1.7882871373591 1.5681438021676 1.3858646156501 1.3782899586254 0.70873770111277 1.3961803172527 -0.41014391321684 1.5945565574959 1.0117019056358 -0.27361202486687 0.26100227312343 1.5491543733939 1.7327774097925 1.2411937320545 1.383061396698 1.8740561044105 1.5387376459448 1.0804671318604 1.6279404218943 0.92273215947525 1.1939856835911 1.4773439777699 0.97441718851165 0.35633677594343 1.3940659429444 1.4521477901105 1.8626824341285 0.76130041559738 1.6715628433279 1.5425251849036 1.4674912611548 1.5744325355124 1.6005494365299 0.19906789575672 1.0140064089891 1.4211868940765 1.0388693862804 1.2423782864851 1.1358997257039 1.7645954748149 1.059332610342 1.2536279831235 1.4675349287976 1.8015109651431 1.7468049434509 1.753395949727 0.64041420671011 1.8721521470119 1.4812814320255 0.75804896686102 1.1913431780874 1.502128012256 1.6127375715307 1.1165618643707 0.84005109542111 1.4530222720854 1.5776964924007 1.9315641384608 1.4321719474704 1.3070665506895 0.80172162564485 1.4120145684405 1.5709979057266 1.5910819772291 1.824321941294 1.4170460170138 1.5524089091994 1.1347789709322 1.5529388549935 1.6030158051282 0.82878895158557 1.9128465225952 1.398115892251 0.57348221921375 1.6034321269326 0.88562657100817 1.5315647828657 1.2266099866554 1.7392248853267 1.2052832889369 1.2161932438877 1.5691134081897 1.1510484302008 1.66172983563 1.8630409531108 1.3270506582961 1.649747903321 1.4635890598772 0.48541157305111 1.0286567872617 1.7959121969902 1.7333973094306 0.15500392045859 1.5970083442639 -0.55400124104419 1.4021387498334 1.7349554133618 1.3046789459495 0.61855963728431 1.7803619106356 -0.70056764019066 1.744593344342 1.3281899123592 1.4427021577641 0.73716157857589 1.1797225703989 1.3924377658057 1.0497900998833 1.4754834119017 1.0814329317493 1.7271773792349 0.77890346842658 1.4271080999797 1.5111796647855 1.2243067171568 1.3482092816692 1.5907567005979 1.5753874681089 1.467817157126 1.1049278642322 0.62377990966049 0.75694184178042 0.63720492464171 1.5358887493969 1.5783413935195 1.5925853621611 1.073654085658 1.6809400830299 1.5521745439145 1.1066046712877 1.5951827679278 1.4491887591009 1.6061545484101 0.51112985442564 0.96757788014925 1.6093618025155 1.2762282075315 0.92360169479253 1.3151370404601 1.3561189799967 1.0642153563747 1.279378338942 1.5428859586189 1.5149051258766 1.2070287875436 1.872285702903 1.8304653936515 1.0888542367023 1.3766903651926 0.72844991224248 1.3412316543689 0.67218907936088 1.6479125592772 -0.20107234913424 0.68340330268104 1.543330287369 -0.26822353961104 1.6752740248734 0.71489555541562 1.2888705091293 1.3190388843176 1.4372490864794 0.82165321836002 1.4108873960121 0.47941886307285 1.2513043884173 1.5795257442329 1.2785661613962 1.5558331886172 1.5144389843519 0.97645330751107 0.80890265722381 0.44100940006308 0.78590741560673 0.55232837197589 1.8415110476407 0.45473283549524 0.92829624527532 1.5307613175719 1.3012690228078 1.5466627606229 1.7409766359633 1.5664844092386 1.6057440068617 1.2412212250352 1.3968112251484 1.5259860185949 1.5471877436027 1.6931666083977 0.55846312302257 1.5849324869788 1.5736410437039 1.1780472863699 1.1541185508536 1.6605916662913 1.912446714236 1.6044113686794 1.7252658779521 0.6673843558379 1.2406286996327 1.8140817402044 1.60070233438 1.2953608157324 1.6921953357008 1.0283022385417 1.379023097697 0.41916620319064 1.738234511679 1.3060270283624 0.68396618174312 1.46963223698 1.5271770601811 1.419045528861 -0.15438277244507 1.2871884935611 1.5837488361509 1.8743859088844 0.32644964064702 1.7780094577428 0.81918956046201 0.22179668318359 1.2110775589279 -0.45983309115484 1.7133882662772 1.9196237819201 1.433144319842 1.0086210288366 1.5172991210668 1.7483535855877 0.40009996621954 1.5924506805931 1.4971781504845 0.22920540648312 1.4517282138193 1.3539744634554 1.6449242882078 0.95772357300209 0.53417264208251 1.4377359494837 0.62389231740692 1.2684490361599 1.8798969955924 1.3610285411109 1.5008405217833 1.3277797159866 1.6227885778645 0.35724442215723 0.40245435064148 0.98197921007512 2.0155299934664 1.1277934919123 0.62616961176954 1.5388278622991 1.5809275637963 1.0621545642062 1.3645305687214 1.2464649544965 1.3498616915224 1.5822078011281 1.4854686480803 0.74662115976832 1.2996680452953 1.3447249623182 1.6194698537926 1.8897853789968 0.60546351495608 0.88251748018281 0.4834476249378 1.5240766263405 1.3232122941504 0.80691568943557 0.99189848147213 1.7771825349046 0.5040170200364 1.1949711445881 1.0645135713721 1.2892130416232 1.7478977095392 1.2432507661324 1.1573249115906 1.7973331324148 1.8910684269132 1.5396770586298 1.7471817309552 1.6143484707444 1.2439483012576 0.79253574731443 0.75457215482502 1.4909192267279 1.0699356714651 1.1912305425881 1.4945997972133 0.76757011496818 1.6525944312896 -0.14863389759523 1.8094491834527 1.6122889459084 1.3615144205225 0.54237274710722 0.6140473074686 1.7649097602817 -0.022609662574574 1.1540281070965 1.3081656533024 0.61098436607956 1.1568111344204 1.8593159705712 1.8144388590959 1.5085826678859 0.67427033543244 1.720246868626 1.7461629487693 0.32874477704178 0.9157922026062 1.644132648515 1.0147735640029 1.5551615779693 1.5475854329304 0.9451116805034 1.3791758486063 1.2379937970302 0.74203545909889 0.64995458296921 0.62678004545396 1.77924253109 1.8511644687948 2.4862112869259 1.5683190065046 0.88681606504206 1.4096336490891 1.4931631845583 0.93885717745423 1.5171710011774 1.7184420634763 0.5057278949909 1.7469686744408 0.87262682429171 1.7476268388206 1.5455839381713 0.75937486619159 1.1452721754504 1.514508344921 1.4070010400863 1.2416474315958 0.89591839749054 1.6566401552551 1.8164796453094 0.85832891393317 1.7023168780812 1.7511544656143 0.47409334831306 1.983851383341 1.4234765912108 1.1874747565566 1.0931246727828 1.1257594996263 1.5810090950083 1.4776077405074 1.7172529376164 0.88839600063741 1.7798269516016 1.2967130682179 1.4320973531281 1.3352286309437 1.0404461425862 0.65720890580855 1.9017887817467 1.828335275035 1.442981709209 1.9240898671857 1.0662091328398 1.0346966499966 1.5152287735142 1.5012151986405 1.3624948452615 1.3606179063701 1.5049176988697 1.0512016489405 1.8067592760677 1.8613152535148 1.4092784912481 1.0543455590568 0.80486438212309 1.4219323113074 1.2695719449347 0.32300288280749 1.5659092483519 1.7308172613499 1.2881352457344 1.8710756042175 1.3594590436066 1.0762817811434 1.8887639671529 1.5221951271911 0.62282029960756 0.7361770608716 1.2915108813002 1.8392904217398 1.1842287625293 1.0415149080301 1.5307284142282 1.3194210348965 1.7217992381949 1.5947146558627 1.2233702709781 1.3512695684995 1.7401127726139 0.89227438583761 1.6052676730765 1.6342313262971 1.8837045023147 1.4921955007653 1.2784813112013 1.7802090708881 1.7528247559739 1.8121376217723 1.5234938067574 1.462337902454 1.4876671559302 1.6064015651201 1.4779528706859 0.93430220612883 0.035138084001568 0.89199820801492 0.78888495622327 0.7725649015185 1.5892825413076 1.2486819816164 1.7717964387647 1.2438850891739 1.531213632001 1.2744926108305 0.60692014306087 1.7715834701033 1.5548256909985 1.6442460976274 -0.38124397740104 1.8571823377833 1.6168343400295 1.0391696239224 1.8384580897809 1.1984160086526 0.98048460477627 1.7820816651758 1.306038349316 0.59965809094954 1.4599466365445 1.2029591425206 1.1017096733997 1.7907350106439 0.94810899252383 1.6170463073063 1.3242919453534 1.3430054476464 0.98708122157531 1.7810346706773 0.22783317481486 0.69755555991643 -0.49513186171204 1.387643755716 1.435082578442 0.79307831023668 1.0439216071484 1.5888594091757 1.6776250322727 1.4132990313262 1.6241107044571 0.88786793650061 0.86722070394219 1.8338605351786 1.7527816114482 1.4983880550534 1.5895665556997 1.46631026354 1.4231618943311 0.60330965117735 1.3854804334512 1.6822910441556 -0.15037392487684 1.3404544330258 1.8868253710201 1.4457489637369 1.4186609826201 1.2518279630002 0.87651217486454 0.46107547414948 1.5523964625829 0.75878222848516 1.3847771564673 1.4020696440419 1.54701854383 1.6104986668183 1.7951929840662 1.8307258176347 0.31236424227976 1.472371071151 1.1082366233457 0.4368628056928 1.8192796222779 -0.47891516436161 0.58364003608429 1.2825268388253 1.7217321575468 0.90078828689594 1.4985795404453 0.56136585933856 1.439814465004 1.0308998610019 1.2980918272695 0.97629514570987 1.0318392757478 1.8903450543308 1.4675548876731 0.73795435629656 -0.090061006719194 1.0720562531099 1.3239124992587 1.5608585431437 1.5135816740577 0.96281442341374 1.8478454103765 1.3379634006653 1.5103297637981 1.4591413831685 0.74292046276147 1.5669014553666 1.5224463699252 1.9394