# vtk DataFile Version 3.0
d-3__ created by libgimli-v1.5.0-1-g5991b6ac
ASCII
DATASET UNSTRUCTURED_GRID
POINTS 1483 double
3.3802423101098	12.435481574566	-0.57001420684378
3	12	-0.2857142857143
3.4959596309848	11.998298039034	0
3.2490070092203	12.168560129388	0
6.0395510135596	13.367156253372	-1.2757999763971
6.5930002103947	12.023472734859	-1.2922192071349
5.4998599382803	12.552571297657	-0.59337769664261
5.29662096318	11.932351047571	-1.5392209346082
5.6153020589615	9.1440579133635	-1.0774777831171
5.7237069713611	8.5589744845549	-0.30827017969781
5	9	-0.2857142857143
5.3151026533923	8.4249591108801	-0.38240156963578
2.3178923476779	4.1926464382665	0
2.5373292327812	4.4716333182052	-0.48281884804687
2.3342974478463	4.0018571812202	-0.30572640106363
1.9994701911036	4.4258543307655	0
4.8968211033092	12.507755029533	0
5	12	-0.2857142857143
5.2932790228536	12.494788035524	0
0	0	-0.2857142857143
0.54768630893449	0.55020446432687	-0.60775225926193
-0.16846798780902	-0.24002860812406	-0.65332445545953
-0.28063481777066	0.41453578455018	-0.44890469943706
7.7	3.575	0
7.3102059000399	3.7470939102263	0
7.7	3.6732286664853	-0.53772532608145
7.3176226410905	3.2857280588852	0
-0.7	-0.10798167686939	-0.47517111104905
-0.7	-0.57707899562378	-1.1376990549501
-0.7	-0.61986630133594	-0.43486724047509
6.3962361866998	10.611290418241	-1.3182185489848
6.565939673393	9.5694509864085	-0.57379796778735
7.1295911592009	10.496363016677	-0.48219980545192
6.3839624611364	10.341052129245	-0.35036617584397
7.7	14.3	-2.5
6.7623683783591	12.987112326146	-2.233077027779
7.7	13.059020885286	-3.3539705522597
7.7	13.327367479896	-2.129915020979
1	6	0
1	6	-0.2857142857143
0.93236760237426	6.49128333619	0
1.3454573625665	6.353105459937	0
2	5	-0.2857142857143
2.1684298754346	4.7403793023811	0
3.0226729813355	8.4836106439452	0
2.5164096947204	8.910651700233	-0.41109082170818
3.4071201441719	8.4167381876838	-0.59109415332551
2.5374808587914	8.1383747261781	-0.35604109466584
6.2778911301719	14.3	-0.61136458754231
6.2225356773765	13.691717475418	0
6.5208076177088	13.495118289851	-0.49928801204061
6.7358646795693	14.3	-0.39005656748015
5.7965188279432	13.281940723964	0
5.5320359851605	12.925291312368	0
5.353113789845	13.264183036004	0
5.5919457801018	13.101154188917	-0.33537516396337
7	10	-0.2857142857143
7	10	0
6.5010306427949	10.010760669106	0
6.8196744207924	9.5136576917357	0
7.7	1.1375	0
7.7	1.6430719769933	-0.42557297445049
7.1939383721229	1.4724531054162	0
7.7	1.625	0
6.3572581294301	1.4772201134971	-0.96507376287322
6.5574763981385	0.84898833643366	-0.48332647821142
6.7774291048203	1.7003141153393	-0.4123635555875
6.1433933962903	1.4220674799247	-0.28622251631329
-0.7	9.1984657118068	-1.9278839451739
0.33291529395702	8.3305676904572	-1.2970017952003
-0.7	8.1442617177323	-1.0898260028896
-0.7	7.644268062563	-2.0766032868031
4.508194357046	8.6258793740749	-0.60770874662543
5.0095189690676	8.5009469809039	0
4.7609249278557	8.7686419230913	0
6.2306672701993	2.67753718	0
6.6360398560532	2.4670661479797	-0.44686919005428
6.4910302172834	2.4939022421641	0
6.1550873755842	2.4572757142813	-0.33684154297057
1	1	0
1	1	-0.2857142857143
1.4901571161019	0.99574153349402	0
1.1736530561382	0.72346383359363	0
2	4	-0.2857142857143
2	4	0
1.6440539242474	4.1532454240512	0
7.7	6.9501255673919	-0.74418826283982
7	7	-0.2857142857143
6.7521552376889	6.497772044976	-0.66059363300197
7.7	6.3887218416049	-0.46884913673037
5.9482896260331	7.5800048202495	0
6	8	-0.2857142857143
6.3095291646476	7.6896230263426	0
6.1432247512519	7.3579252770212	-0.41388970597853
3.501272057481	12.437082442362	0
3.3297831413816	12.805427976196	0
3.6823393063421	12.851671876304	0
1.3671388209093	10.633374397873	-0.4152980605108
0.95248763025238	9.835503527633	-1.7808732395437
2.3518021577517	10.495200039554	-0.50930668321109
1.5373497846005	10.021005779616	-0.41781002197689
6.2054585007625	14.3	-1.3884356875417
6.9442913034148	14.3	-0.89278753613404
1	8	-0.2857142857143
0.54167473049383	7.7707286368021	-0.37916050195481
0.44975345341211	8.3808810318019	-0.31136669048163
1.022076618805	8.4121844676845	-0.45670843222423
0.89173681858685	4.6122796653579	0
1	5	-0.2857142857143
1.2386083631299	4.6841794176855	0
1.3923592539172	4.7130963353432	-0.25978315417498
6.4242299347383	5.6840176993625	-0.35514079575845
6	5	-0.2857142857143
6.3424541740313	5.2754910113697	0
6.0447933133998	5.5049876953384	0
5	2	0
5	2	-0.2857142857143
5.5190673049038	1.9208326821789	0
5.2306444928855	1.6547875838902	0
5	13	-0.2857142857143
5.257359886178	13.540476325965	-0.63012071696907
0	6	0
0	6	-0.2857142857143
0.066757795936057	6.5008369551487	0
0.29243888553297	6.1743316976873	0
7	9	-0.2857142857143
6.5033796411008	8.9981073418213	0
6.5607922823332	8.4440251373986	-0.63122800754088
6.811726958696	8.7028726276344	0
7	5	0
7	5	-0.2857142857143
6.4986646723997	4.9192017057136	0
6.7141996182955	5.3303468264748	0
7.7	9.5988491781319	-7.4736716195817
3.1507199964473	10.394874003632	-10
4.8663216648816	7.3792654266676	-10
5.1015502438684	11.553440122249	-6.405163284031
7	7	0
6.9589015254993	7.4884372736447	0
6.761634669635	7.2408783569561	0
6.0574437090791	0.20878539066113	-1.8779478182653
4.9838025543493	-1.3	-2.1179854334408
6.0308685444023	-1.3	-3.5425074203685
6.440522236286	-1.3	-2.0103523001383
3	2	0
3	2	-0.2857142857143
3.0105846506	1.4855923993349	0
2.6480485575569	1.6700894103009	0
5.0527203000088	13.535479310798	-1.5373151531841
5.0246691847863	14.3	-1.036131499603
4.1300067609037	14.3	-1.2024507502556
4.4744197407865	13.547407617085	-0.63586628370479
2.5813517996865	9.6286485974984	-1.0236151505326
2.2955236368793	9.5881134365907	-0.29154811067367
3	10	-0.2857142857143
6.4248505083522	12.522044346884	-0.42559946143008
6.465073985677	12.51782996062	0
6.1644652963082	12.36965297069	0
6.3832046574853	12.135664356038	0
2.9908655166747	12.498069465114	0
1.984703560175	7.5906357794687	-0.50777967523709
1.0508409188237	7.354634772545	-0.95680796450018
1.4515039911109	6.5829264157992	-0.56173008002516
1.3866216751759	7.5118935788728	-0.35488362790971
2.45	14.3	0
2.2168273415577	13.627179222019	0
2.4554693735383	13.497784276817	-0.39727655195048
3.032551925238	13.762466584345	0
6	11	-0.2857142857143
6	11	0
6.4843452951013	10.966514281357	0
6.2440599782187	11.234710090977	0
5.5	-0.5576923076923	0
5.247952850371	-0.29481663567353	0
5.5452342683804	-0.096294524539033	-0.49623355575102
5.1016398375367	-0.61489919294387	-0.38960315167385
2.3232496140345	4.0110297188843	-1.3835068702753
1.6586320571652	5.8268322896535	-1.5213554090482
0.71002746520551	3.976198472286	-1.505315421377
1.3296414347056	4.9089994064226	-0.82629172929831
5.6	14.3	0
4.6510156691765	14.3	-0.56274723813486
-0.090060726359069	5.5363033123106	-0.44581840212762
0	5	-0.2857142857143
-0.38456492153953	5.1805342841446	0
-0.7	5.0205501441189	-0.32507149572551
3	13	-0.2857142857143
5.1848675157348	3.2965660830064	0
5.4046165570399	2.9501485228537	-0.43988698776777
5.486289771732	3.4981838484395	0
5.4682750147717	3.0660382780841	0
0	8	0
0	8	-0.2857142857143
0.5178658825659	8.020802151125	0
0.25864598874121	7.6639427314904	0
6.7098208972434	7.2950601162224	-1.3269022195366
7.7	7.949747446039	-0.91833665053736
7.1577047253729	7.4844276204668	-0.64272934527953
4.5892004575887	3.5369189576522	-0.55981654583505
4.4420188491858	3.4660037233365	0
4.711527897636	3.7375259681419	0
4.3494632088922	3.8023533541114	0
4	6	-0.2857142857143
4	6	0
3.9913416390327	5.4988534517732	0
4.5093195747582	5.724109532591	0
1.4	14.3	0
1.5	13.55769230769	0
0.89284349994875	13.714781914708	0
1.2292962491126	13.670420041977	-0.37788942865261
4	9	-0.2857142857143
4	9	0
4.5502440226935	9.051086551406	0
4.2963154051231	9.3907765114078	0
4.5321110402369	7.5028925212181	-0.60552533206341
3.5085861108931	7.3893844432383	-0.64873189634878
4.0050480592533	7.4977657988521	0
4	8	-0.2857142857143
5.8961095330637	-1.3	-1.0125722125019
4.8982045728458	-1.3	-0.82217786726149
5.2296982103621	-0.31621891710017	-1.0679345669244
4.9010483556055	1.478997710586	0
4.5631533182214	1.9074133665015	-0.41231302454656
5.0320642355688	1.4518180616801	-0.36509190625555
3.5357179442866	0.46434418042464	-0.60031716899974
3.9407498163335	-0.4411178910574	-1.1087857494349
3.2826824657074	-0.47747544834602	-0.50866572047373
2.802260468126	-0.22902113419037	-1.4542342115515
1	13	0
1	13	-0.2857142857143
1.1191337005982	13.329221525091	0
1.4884720276527	13.02962190928	0
-0.21681247778723	8.5792000107362	0
-0.35118339610893	9.0917088673227	0
-0.7	9.0968147603684	-0.35256881313688
-0.7	8.9375	0
0.51662331659314	-0.40156299802931	-0.67799391089861
0.13474046208011	-1.3	-0.85683826964205
-0.16941603187845	-0.57512411281067	-1.4019543009948
6	13	-0.2857142857143
6	13	0
5.8068477026831	12.499749736815	0
6.1890713266052	12.67695534294	0
2.5984255358496	5.4578875982232	-0.67264342113488
2.2172109403706	5.4325217687574	0
2.4824672258873	4.9705265694472	0
2.6598112065826	5.3330483814808	0
-0.7	0.5146532048839	-0.51418317722913
-0.7	1.0492756199945	-0.88024243711367
-0.37698118088761	0.89350663208132	-0.33360419980628
-0.25096134668857	0.95145340086689	-0.90448711690516
6	2	-0.2857142857143
5.4002158317804	1.7678073061348	-0.50898482673054
5.8183999242367	2.5164331321023	-1.0840550371572
-0.13917028340788	5.5182991349521	0
0.31578338747353	5.7567158690792	0
6	12	0
6	12	-0.2857142857143
5.513035862904	11.994753403328	0
1.5285536174902	4.2362319729344	-0.43851980589517
0.57100063419133	12.499134596467	-0.56842257570583
1.2565986295401	13.42724014175	-1.149557674079
1.4486633887383	12.69302170761	-0.31714242590465
6.65	-1.3	0
6.903739311401	-1.3	-1.0953527719967
6.3980205255852	-0.38130956989248	-0.5855507841991
7.2175457166608	-0.5710098692386	-0.51938212652516
3	7	-0.2857142857143
3.5055774955602	6.7395375676091	-1.4094768265058
2.383927159844	7.4535505157878	-1.0620490471275
1	4	-0.2857142857143
1	4	0
1.2222221827385	4.2954008280594	0
0.82345085295407	4.2815033897546	0
5.6	-1.3	0
5.790373644402	-0.65252487431205	-0.38521635467031
[...]
CELL_DATA 5483
SCALARS Coverage double 1
LOOKUP_TABLE default
1.4973888251727 0.73538547310242 1.3922072697443 1.5622413044577 1.4356806882202 0.86226556512896 1.1290538029839 0.65000203332153 1.0979715144171 0.19910157273773 1.8286889819092 1.6494593396901 1.4869702924524 0.71169351722028 1.2435117912982 1.778567660776 0.96603867863008 1.1301334174863 0.59792905984474 1.6393686223865 1.4318305734429 1.6939313301278 1.8781115744924 1.0507454430657 1.5786857640206 1.3856186057803 1.239244799951 0.57199995024017 1.3034125327837 1.6383634094651 1.5459771577147 1.7664658157857 1.2010714016525 1.7786287521656 1.4687517810344 1.7623382741909 -0.39479002467246 1.7875300792873 0.24149498868627 1.7775413149131 0.61032652143992 1.3713679118759 1.380968921915 1.4563738550011 1.2683316580481 0.89002927967323 1.817308970203 1.0286029905433 0.93109194771949 0.55845435193609 0.67779091930639 1.2627418762945 1.3738038913275 1.5101217245257 1.3669947037811 0.94074762690072 1.4376622039556 1.8333145742196 0.85561908793077 1.8257177119682 1.5084514916333 0.60504474842813 1.4189311310613 1.5181493728248 0.70807542885975 1.5780353124168 1.130425777975 0.62128661300779 1.7001219252323 1.5569389671642 0.8170108958 1.0769541773241 1.7645089716951 1.6846727301937 1.5275332372842 1.031267305487 0.61416418294547 1.2559618499661 1.9252439649041 0.62701542816023 1.1533739563162 0.78958497933256 1.4956734646203 1.2127090221139 1.4985611842937 0.97763042102912 0.5983127987605 1.8423149901713 1.7591193906561 1.551041783722 1.1559010855117 1.1972357540474 1.2575522342503 1.2145392896532 1.4556770660333 1.6114026566159 1.5828643055153 0.96744332554529 1.6320478102649 1.655350923844 1.2933893130236 1.8014002025432 0.94055419967058 1.5889336431809 1.0780163238563 1.5295000624597 0.30320193320804 1.1122849528921 1.7803807962257 1.8707578037338 1.5501355483642 1.2854282806128 1.4641626306721 1.4015372317004 1.1540968141138 0.73768664707694 0.9384347520494 1.0126903270513 1.5580197504289 1.1935805215863 0.94998414302243 1.6042442161384 1.2361286515638 0.41601005884925 1.2298865728728 1.7754923822152 1.0468500001773 1.8002928990857 1.3281570162329 1.5193498781716 1.4941171332277 -0.22776566243556 1.0556048860924 1.393051944663 0.80542953638009 1.5804828250834 -0.42172007742247 1.3419389151832 1.3285107322113 1.8613637344009 0.54582157617159 0.14609732526912 1.7714643629524 1.6803866275801 1.4990911309713 1.4166173122388 0.85684158289072 0.66050023275547 0.90394476003058 0.58933623334393 0.36379374887049 1.8496850552231 0.80697247732251 1.1966873179937 1.3781033137784 1.6360091009075 1.4464507643548 1.0505979434043 1.7289361032477 0.77595398467576 1.4311894633687 0.71746801068151 0.92447967235309 1.5730678300891 1.859629796001 1.6358293745884 0.58715885592464 1.7958825224549 1.4230018727193 1.8004096279442 1.5844121080958 1.1721225083575 1.250892883483 1.8249414510892 -0.096890467328105 1.8594368710065 1.9013582231602 1.7591536122194 1.6885562457423 0.16299454508831 1.5447579921155 0.38682488114197 1.1132026743918 -0.099810823131537 1.2188083181976 1.8481336740625 1.4002058042835 1.5585108235043 1.819816437486 1.3257507931316 1.8435467059634 1.3191464998768 0.73241172311795 1.5898552992407 1.2571022163305 1.0658653290445 1.6397499666557 1.5320266150249 1.3949230023986 1.8570424240929 0.51892559637554 1.8941246282111 1.4118846596293 1.4924340332171 1.9109476982757 1.6542743961837 1.7140630610237 1.461906454765 1.0666710664305 -0.45667470713901 1.3767238506089 1.0698169754221 1.1724281075825 1.8835574478757 1.8508653475235 1.8613462221644 1.8469158864429 1.5960901748041 0.85298091725096 0.84650859162651 1.3698877499362 1.7189417118782 0.54215660854672 1.8668553862525 0.71359643294675 1.6819874375142 1.5320607651058 0.85131599428978 1.9226321956427 1.1502182244982 0.91762952321236 0.87768917328545 -0.15848474325924 1.8555410508727 1.4357385181381 1.1581912746114 0.54744532109417 1.7450932954969 1.5635958038407 1.5324416891199 1.7657762605164 0.6971419618735 1.583956956022 0.9546152875402 1.5698088254324 1.8415164841104 1.3205097558741 1.5268503870532 0.51198974621696 1.6056800468228 0.6822115253295 1.6599206049876 0.45063300700109 0.20538507562797 0.0066536367570732 0.4447739573556 0.87146826406332 1.8584016103678 1.3064509057234 1.8703624095044 1.0366144590642 1.0475221872402 1.4180037139239 1.3448783254605 1.7514557526885 1.8273785394532 1.4486339454541 1.8581788727971 1.5295948109919 0.71778377197481 1.8527765712163 1.8885931922361 1.5539499691725 1.4182419117152 1.8406680159892 1.5485091786666 1.8511213499872 1.5761508428398 1.5636592654716 1.7250588649084 1.634606491676 1.9274758536508 1.4254735517522 0.52574482621038 0.50020775172366 1.264432700482 0.95457693975423 1.584435921691 1.7352437457568 1.3046818524462 1.5306113569718 1.8446238801852 1.7210891172336 0.56108703576796 1.4091679441692 1.6904827693514 0.71866237084194 0.2620638688908 0.83294381515851 0.499990493992 0.44641943475668 1.5612341911164 1.3970960461569 0.99357294896725 0.80958365911758 1.0970991510099 1.6093921550493 1.3011686227533 1.529769023452 1.1111444742525 0.73041744267108 1.5775370498965 1.2610714403963 1.2513043706731 0.63246996007169 1.1526369484603 1.5155153624625 1.0715401992926 1.4370962422604 1.1508409611819 1.8136609163692 1.4958201136069 1.5254352674818 1.4062280249427 1.9063034809198 1.2564876087751 1.6955008228818 1.5407333171201 0.45882330600725 -0.63831992106225 1.6222659537133 1.1964023329104 0.7234995518825 1.5272785744869 1.4521729305499 1.7966719947568 1.8734787029343 0.94610633891198 -0.58931598581997 0.840715486681 1.4112457906535 1.2143523151961 -0.25698830565129 1.0344901259925 1.0481604261448 1.4167915716247 0.86740579961596 1.542760433975 1.3656765213491 1.2353053044478 1.526270925597 1.7159112801012 1.7871031264676 0.59680293511896 1.8759054766555 0.99383769080883 0.10443932876654 1.3026975871244 1.6996343500903 0.47579936726102 1.3050478495829 1.3660677564552 0.70442735239519 1.3738314517662 1.7418569476246 1.4679645510187 0.86833247016459 1.7696371353531 1.6737406562224 1.2035055756908 1.3169278152244 0.96468170817914 1.4684799535589 0.26429581688264 0.57261533437498 1.1386584488483 1.2905211785898 1.5186342440239 0.75892642777664 0.32490597888681 1.8260435244006 1.8836577528176 1.9014937711663 1.5909230553877 1.338760318519 1.8530909255403 1.8059293749011 0.5733357153132 0.83088214572432 1.5209883873119 0.98984076697521 -0.23364655730097 1.5882825505882 1.4025285490186 1.3671560261036 1.5800205769594 1.5999487340439 1.4624568331831 1.3806692173824 1.5387416444982 1.0449127226173 0.83022512701069 0.82298443672119 1.754931728423 1.9195157718135 1.2325119239643 1.3408136153167 1.7162956084541 1.8454473955208 1.2747460321578 1.4317473345221 1.507433022172 0.64680668227256 1.815534598217 1.4056675844293 1.4397932488273 0.92351112030205 1.5505941321839 1.8398460692287 -0.40170895781527 1.5483641950303 1.5193660760567 0.5198989590491 1.3868797350441 1.350660455158 1.0367699672469 0.19232195600397 0.11394888828122 1.5792851817854 0.30049530613843 1.6896021052722 1.2627585435316 1.8168203840666 0.87285881359121 1.7416489774317 1.403394260822 1.7334816709253 1.795528344508 1.4013531870072 1.1955664002896 1.4232751025976 1.5634274793636 1.2656918145586 1.7299359216973 1.8254612031053 1.558613521153 1.1314949647484 1.2713583520592 1.1962326092048 1.2354880229969 0.90141288284501 0.6926697967415 1.4490111734194 1.5179395946272 1.6101389291034 1.4547920546768 1.879559839533 1.3708341946472 1.6885825428368 1.490082435301 1.883297001954 1.2339633791832 0.9857180874027 1.5906218858358 1.9098321948956 1.48728820457 0.86428486585852 1.3413383330716 -0.25401494540485 1.8424850104572 0.44758176615344 1.7995626790169 1.4733436733322 0.2240115424528 1.5544284896298 1.3052367919884 1.0620154575209 1.4934563130775 1.7192069129395 1.8404956742385 1.4281663008597 1.4361690787303 1.8018517355691 1.629868307356 1.3649980801162 0.7011922843734 1.5822983451364 1.545621206832 1.5232042592759 0.65102887502444 0.43416993976164 1.4275133894072 1.2233278248655 1.4924158721789 0.82643176447225 1.8502749532664 1.4461978107508 0.81084048816944 1.9206265958017 1.4227291936561 1.0421447513671 0.62551663286848 0.82152111043931 0.98083744907526 0.5146549130235 1.6967511799532 1.5894680065246 -0.031667488822769 1.3150231490679 1.1538869692288 1.4428533842155 1.3482070876238 1.5281054364458 1.5052303617127 1.7954991754014 1.0311695181396 1.580445812671 0.73962819774848 1.0671282080507 1.3783757445489 1.5839286257793 1.0908335999453 1.7752374701634 1.6093466528637 1.3051432185706 1.5831163450447 1.4264374177244 1.6679524768172 1.5602987361362 1.6001212087315 1.5617960588037 0.40013973566539 1.304703045409 1.4249592328396 1.8117237877561 0.76442273023128 1.7877855590003 0.75415973860376 0.88095680754983 1.3276336135286 1.7856306828781 0.85667886089833 -0.70960364452471 1.2541001552029 1.5259502574502 1.2619229566905 1.6890028151995 1.4642481155758 0.64979895904803 0.80988405854104 1.8199161499293 0.92234884805904 1.5836357801516 0.83219384966445 0.59357405829703 1.3552928250063 0.56235744396296 1.5544051695986 1.5840555694425 1.5249936910573 0.01596405487677 1.1033247217079 1.6930741106903 1.1921693186279 1.5213003394993 1.4232870977062 1.3881355103938 1.449515071878 1.0566741553098 1.5850412863395 1.5397393491651 1.0120942753323 1.0811963603355 0.23494951589703 1.8796702453287 0.91239059213862 0.32358669890937 1.7386942218277 1.3252066565044 1.6159116535405 1.691055347886 1.6755335305032 0.63511393802407 0.84382679431779 1.5884162590237 1.383030818223 1.6552691086679 1.1359136572998 1.4748637234116 0.75423560635843 1.052003758815 0.82752682517728 1.5041701524566 1.2317953658549 0.66623805972347 1.8588272226461 1.6414910862308 -0.57089952532585 0.11712291635614 0.88558731518382 1.6205139129734 1.5558628254059 1.5356917995378 1.8343492146373 1.0865616659245 1.4290013920773 0.5963794487857 1.6761191524153 0.34882916861108 1.6702371666271 1.0944940914631 1.5720807552708 0.89694602547817 1.5869393772479 1.5013351166338 1.3486595254524 1.4268328946378 0.34111660484366 1.8631496413434 1.134996581242 1.4958677388953 0.43890161966064 1.4476298395466 1.561505428088 0.94312248475287 1.3391584398615 0.86164768640886 1.6898242571271 1.0745923749425 1.4683079059079 1.3777343828785 1.2596760535972 1.8597184291543 0.67308810082856 0.39491048534061 -0.563960682462 1.7739105220898 1.1133289283747 1.0510257580763 0.74826437311995 1.8068976777742 -0.22061191854538 1.6211406050175 1.5645478154077 1.0830018452638 1.0267351452014 1.7730909777423 1.8599493167728 1.4697765829182 1.5189642567205 1.7895632706438 1.6844386958516 1.8425710439062 0.72821978173597 1.3409333197059 1.844032125927 2.0395415662871 0.67242765372433 1.4292790891092 1.3559249661079 1.459677780298 1.5619778395238 1.5935464299448 0.60496637006201 1.7353921949243 0.67172691536431 1.1229475537712 1.4723143726173 1.9157954248039 1.1108953344289 1.4117791370728 0.094173390783778 1.6748804011469 1.6497175401408 1.1267186966919 0.26095338986934 1.3966485501823 0.69951599768564 1.6621236051396 1.1580622716754 1.5032032186205 -0.38175662868103 1.4308055886561 0.65285729606903 0.75478799107854 1.859464006911 1.2721858898109 1.3004412267186 1.5339965027413 0.44434087410272 1.8682712313713 1.851415812134 1.5123554634418 1.8239584952099 0.64488956683517 1.3577618198775 1.2910792156499 1.5167143506186 1.022766134386 1.7918723802392 0.49228983869619 1.2598213168825 1.3777999545718 1.1746526872803 0.79032044107889 1.7714107109509 1.5478610664196 1.3328308278831 1.3547982867619 0.69386411776095 1.3846358438654 -0.43747719819551 1.5747188188935 1.0004543954442 -0.30870626557892 0.24169857323647 1.5340386582866 1.670509576984 1.1141328113689 1.3699052389985 1.8508873342555 1.5239408636202 1.0640746993691 1.6142253030491 0.91337913935518 1.1621799518369 1.4402877640097 0.96187943768273 0.32923576377881 1.2544048042095 1.4489511949983 1.8532232627141 0.74247212104265 1.6482259359879 1.5265606036105 1.4422563298345 1.5627083023217 1.5843872442082 0.18200195260601 0.97876509961912 1.3183657113628 1.0183800958817 1.2325087528795 1.1189291003718 1.7644287105599 1.0396109032004 1.2368649346191 1.452582125169 1.7745595905875 1.7339137743585 1.7348128557062 0.62337918093436 1.8647934229668 1.4644779382705 0.74014209204814 1.1863243817856 1.4849608006354 1.4438702597917 1.0948317097223 0.82759453835681 1.4444741812978 1.5322248909478 1.9153969983781 1.4218246480996 1.2961841660148 0.77078310540824 1.3994634472406 1.5521582144756 1.5696911139733 1.8146297254672 1.4051376541135 1.4938414079003 1.0833250957735 1.5364805874583 1.5868966524838 0.81664233263781 1.8843232950283 1.3874330826559 0.55216976309062 1.5947417022465 0.86833689046236 1.5112435897683 1.2068468608536 1.7192169580581 1.1978493116048 1.2006965911409 1.5665108677263 1.1325125927538 1.6395940319236 1.8501905765188 1.3162235708341 1.6305850120579 1.4471810565088 0.46745226921994 0.98337665471756 1.7794354196455 1.7076075139491 0.09848607221447 1.5888108839753 -0.57951548038191 1.3833931425509 1.7210244159302 1.293041264829 0.60199147000559 1.766133870563 -0.7252475551964 1.7204034230713 1.3190185067017 1.430775123937 0.72086329960894 1.1635117453199 1.3800370847807 1.0317123778367 1.4515632022052 1.0641943121179 1.569200225541 0.76226058914433 1.4099494534496 1.5062339896437 1.2070514966563 1.3227216085402 1.5747296046624 1.5541559236052 1.455616015878 1.0800116361664 0.61499989266602 0.74819887531499 0.60433910861088 1.5253584080232 1.5641202855558 1.5770007994894 1.0663777141811 1.674389929368 1.4924536574822 1.0897546179287 1.5819788459848 1.4411976495815 1.5851304694047 0.4977244878146 0.95921633035854 1.5949842545453 1.2644790942344 0.89021094732678 1.2877035465116 1.3430516693365 1.0487545670126 1.2745909495559 1.5236005277182 1.4941400964446 1.192065448357 1.8585987119394 1.8182334580208 1.0716137426544 1.2890480727941 0.71037059342929 1.3307940249397 0.66189959829981 1.6380986697703 -0.22528077782243 0.65666743985479 1.5335773998503 -0.30030755179812 1.6506670719125 0.68351199750385 1.2785076437383 1.3035967322132 1.4176087909909 0.81578422133772 1.3965953742525 0.44199734787013 1.2420042189481 1.5695631379983 1.2676789241113 1.5318240956635 1.4834716682635 0.94062404367068 0.78892741570497 0.39143288417751 0.77632246216643 0.51238895306629 1.8223393880275 0.43600100630615 0.91841346782549 1.5177322185368 1.2895196654598 1.5239650757771 1.6579297907954 1.4688308805441 1.5737436183267 1.2238499349529 1.378365621821 1.5097125243957 1.5291523887814 1.6868638313685 0.54061450985425 1.5620543784665 1.5551912431278 1.1588786101398 1.1389529915176 1.6438095604794 1.8881636067144 1.597090877175 1.7155176517867 0.65247728828916 1.2327052222688 1.8073116160544 1.4830974512386 1.2801547933332 1.6609491040263 1.0039882431706 1.3691653789952 0.39335689583325 1.7353531025922 1.2425046243633 0.66765256467586 1.4589131344729 1.5069861571405 1.4121750730756 -0.1815573561038 1.2783557122406 1.5737491234176 1.8581767054502 0.31485061159883 1.7665190519085 0.79935826429299 0.20233171865063 1.1667335384654 -0.49918103122647 1.6918244015205 1.8970335603926 1.412325862655 0.99470071930063 1.4993575573681 1.7028649209321 0.37350531028458 1.5755677123659 1.4817858120833 0.20682417294108 1.4325118229162 1.339788913814 1.6336053517789 0.94500151108384 0.5152483077517 1.4259160088537 0.60255101246999 1.258410733105 1.8596800319882 1.3523654672726 1.4985974214492 1.2872520935685 1.5985342682303 0.3283956341935 0.37606115462274 0.96648332109919 1.9996025906324 1.1077125435781 0.60708128612826 1.5332083731408 1.5671259058725 1.0466096463725 1.3598740128605 1.2300419321783 1.3175946390683 1.5554145066537 1.4812829918907 0.73177653077038 1.2930903517921 1.3315672401731 1.5940546545344 1.8705886945681 0.58690719640284 0.84453685091258 0.46625784363979 1.5058638913063 1.3180302781978 0.77755148807141 0.98014318567022 1.7895586947093 0.48333186220497 1.1846053143382 1.0497177662732 1.28152568332 1.7287794354076 1.2333042552303 1.1450616807969 1.789611187167 1.8768959900072 1.5138332914218 1.7298480032452 1.5854825525838 1.2238441988362 0.78574285442857 0.7379971566249 1.4875336274344 1.0564012255038 1.1767608164488 1.4805514249728 0.73681645428285 1.6244298069534 -0.16088355316131 1.8064364261462 1.5969023380268 1.3562146417686 0.50794882053177 0.57390215810256 1.7409446297876 -0.041710827581611 1.1392219201674 1.2457882029034 0.59233777363726 1.1395184204471 1.8228908271685 1.816642192467 1.4779636320555 0.66232926054429 1.6987761290551 1.7492343108878 0.30170989312168 0.8950530662209 1.6276606437489 1.0028225348753 1.5500874195297 1.536763303903 0.91711604321939 1.3736002427325 1.2118430718162 0.71884993869074 0.63447244585444 0.60350714894011 1.781709286664 1.8303525409536 2.4737950589882 1.544477398095 0.86671137398528 1.3233750041229 1.4835762103255 0.92069786102665 1.4915291660372 1.7054548540513 0.49225409419411 1.7367248439496 0.85376330023092 1.7303709931673 1.5078639641978 0.74022416143281 1.0850373752356 1.4995025919824 1.3963167171205 1.2333490514784 0.87677266883521 1.6253503365668 1.8038981449089 0.84526608677256 1.6812573089707 1.7341330748095 0.42981080503722 1.9750163421516 1.4085236568967 1.1744723058511 1.0358685424731 1.1026627233948 1.5553327503393 1.4699728706769 1.7021968199308 0.87054063197946 1.809177265664 1.2667515840374 1.4204360393089 1.3289347257332 1.027252734606 0.63913531901133 1.8828836101237 1.8061421045454 1.4322846392172 1.9068616829598 1.0456094951601 1.0236240212993 1.4995442854491 1.4879126466082 1.3436768240723 1.3500889540581 1.4915354014965 1.0441568156247 1.7815381420559 1.8501842107407 1.4030049981682 1.0260915407614 0.7896514685158 1.4164122681761 1.2608950927277 0.30633619061345 1.5585529000186 1.71126614164 1.2803297108008 1.8619455497441 1.3469822114942 1.0510891743585 1.8674330797832 1.4872191328475 0.57276390208662 0.71705815202 1.2843943786166 1.842179281451 1.1735520232708 1.0076226890046 1.4481803355258 1.3079915789392 1.7152426345016 1.5517573765096 1.2091878533632 1.3028732788103 1.7162421068029 0.86568383373809 1.5987804924643 1.6109726777074 1.8731421858382 1.4622336847266 1.270717693147 1.7592849135936 1.7366151910101 1.8071065361809 1.5152581416468 1.452330384019 1.4610714398273 1.5933280650604 1.4560737735245 0.91923203085053 0.024565235080752 0.87398439245278 0.77081431885396 0.74986699920742 1.5771317011701 1.223494918319 1.76297647478 1.2336041522562 1.5171164445998 1.252289527356 0.59107752231976 1.7641257932035 1.5369543834672 1.633722838656 -0.40500133582511 1.8340028483023 1.6010292135861 1.0198634914787 1.8111255745485 1.1818317905726 0.90512847600279 1.5610216587357 1.286091133056 0.58293181177028 1.4560565242125 1.1904844425965 1.0835886959928 1.7644636888354 0.93394135582023 1.5789758851266 1.3062859525016 1.3261317839554 0.97294593653432 1.7759651976271 0.19826652627031 0.67835122751912 -0.52695239153161 1.3689494643109 1.4118556963602 0.78142375461883 1.0119081815304 1.5822396305599 1.6574516852611 1.3841097545545 1.610870645418 0.87723142141949 0.85135764788806 1.8096379926741 1.7442860183296 1.4855670903627 1.5614920750526 1.4418711968714 1.4082623691404 0.58537932394496 1.371820668701 1.6641114833697 -0.16696004538315 1.2521048913496 1.8658410654499 1.431850876475 1.3938750953188 1.2444209167685 0.85829142837827 0.43040555039044 1.5431564101448 0.730613893101 1.3762968144748 1.377346763925 1.5274851056176 1.5877504397942 1.7853754751611 1.8202164455349 0.2942930255035 1.4547462007879 1.091143082838 0.4251850886254 1.8061981262481 -0.51786365992608 0.54441635808242 1.2545252981438 1.7337680697766 0.86411916182031 1.4829053849842 0.53896226450267 1.425675419856 1.0135447007484 1.2721998688965 0.958066982997 1.0187803371098 1.870854885346 1.4309390372948 0.73189142261202 -0.11811007606792 1.0405745325038 1.3056231695312 1.5348032016485 1.5119111723177 0.94435528728035 1.8326608110796 1.3177116239003 1.4957097735198 1.4469954661995 0.71409823805595 1.544518203545 1.49931998