# vtk DataFile Version 3.0
d-2__ created by libgimli-v1.5.0-1-g5991b6ac
ASCII
DATASET UNSTRUCTURED_GRID
POINTS 10201 double
0	-10	0
0.5	-10	0
0.5	-9.9	0
0	-9.9	0
1	-10	0
1	-9.9	0
1.5	-10	0
1.5	-9.9	0
2	-10	0
2	-9.9	0
2.5	-10	0
2.5	-9.9	0
3	-10	0
3	-9.9	0
3.5	-10	0
3.5	-9.9	0
4	-10	0
4	-9.9	0
4.5	-10	0
4.5	-9.9	0
5	-10	0
5	-9.9	0
5.5	-10	0
5.5	-9.9	0
6	-10	0
6	-9.9	0
6.5	-10	0
6.5	-9.9	0
7	-10	0
7	-9.9	0
7.5	-10	0
7.5	-9.9	0
8	-10	0
8	-9.9	0
8.5	-10	0
8.5	-9.9	0
9	-10	0
9	-9.9	0
9.5	-10	0
9.5	-9.9	0
10	-10	0
10	-9.9	0
10.5	-10	0
10.5	-9.9	0
11	-10	0
11	-9.9	0
11.5	-10	0
11.5	-9.9	0
12	-10	0
12	-9.9	0
12.5	-10	0
12.5	-9.9	0
13	-10	0
13	-9.9	0
13.5	-10	0
13.5	-9.9	0
14	-10	0
14	-9.9	0
14.5	-10	0
14.5	-9.9	0
15	-10	0
15	-9.9	0
15.5	-10	0
15.5	-9.9	0
16	-10	0
16	-9.9	0
16.5	-10	0
16.5	-9.9	0
17	-10	0
17	-9.9	0
17.5	-10	0
17.5	-9.9	0
18	-10	0
18	-9.9	0
18.5	-10	0
18.5	-9.9	0
19	-10	0
19	-9.9	0
19.5	-10	0
19.5	-9.9	0
20	-10	0
20	-9.9	0
20.5	-10	0
20.5	-9.9	0
21	-10	0
21	-9.9	0
21.5	-10	0
21.5	-9.9	0
22	-10	0
22	-9.9	0
22.5	-10	0
22.5	-9.9	0
23	-10	0
23	-9.9	0
23.5	-10	0
23.5	-9.9	0
24	-10	0
24	-9.9	0
24.5	-10	0
24.5	-9.9	0
25	-10	0
25	-9.9	0
25.5	-10	0
25.5	-9.9	0
26	-10	0
26	-9.9	0
26.5	-10	0
26.5	-9.9	0
27	-10	0
27	-9.9	0
27.5	-10	0
27.5	-9.9	0
28	-10	0
28	-9.9	0
28.5	-10	0
28.5	-9.9	0
29	-10	0
29	-9.9	0
29.5	-10	0
29.5	-9.9	0
30	-10	0
30	-9.9	0
30.5	-10	0
30.5	-9.9	0
31	-10	0
31	-9.9	0
31.5	-10	0
31.5	-9.9	0
32	-10	0
32	-9.9	0
32.5	-10	0
32.5	-9.9	0
33	-10	0
33	-9.9	0
33.5	-10	0
33.5	-9.9	0
34	-10	0
34	-9.9	0
34.5	-10	0
34.5	-9.9	0
35	-10	0
35	-9.9	0
35.5	-10	0
35.5	-9.9	0
36	-10	0
36	-9.9	0
36.5	-10	0
36.5	-9.9	0
37	-10	0
37	-9.9	0
37.5	-10	0
37.5	-9.9	0
38	-10	0
38	-9.9	0
38.5	-10	0
38.5	-9.9	0
39	-10	0
39	-9.9	0
39.5	-10	0
39.5	-9.9	0
40	-10	0
40	-9.9	0
40.5	-10	0
40.5	-9.9	0
41	-10	0
41	-9.9	0
41.5	-10	0
41.5	-9.9	0
42	-10	0
42	-9.9	0
42.5	-10	0
42.5	-9.9	0
43	-10	0
43	-9.9	0
43.5	-10	0
43.5	-9.9	0
44	-10	0
44	-9.9	0
44.5	-10	0
44.5	-9.9	0
45	-10	0
45	-9.9	0
45.5	-10	0
45.5	-9.9	0
46	-10	0
46	-9.9	0
46.5	-10	0
46.5	-9.9	0
47	-10	0
47	-9.9	0
47.5	-10	0
47.5	-9.9	0
48	-10	0
48	-9.9	0
48.5	-10	0
48.5	-9.9	0
49	-10	0
49	-9.9	0
49.5	-10	0
49.5	-9.9	0
50	-10	0
50	-9.9	0
0.5	-9.8	0
0	-9.8	0
1	-9.8	0
1.5	-9.8	0
2	-9.8	0
2.5	-9.8	0
3	-9.8	0
3.5	-9.8	0
4	-9.8	0
4.5	-9.8	0
5	-9.8	0
5.5	-9.8	0
6	-9.8	0
6.5	-9.8	0
7	-9.8	0
7.5	-9.8	0
8	-9.8	0
8.5	-9.8	0
9	-9.8	0
9.5	-9.8	0
10	-9.8	0
10.5	-9.8	0
11	-9.8	0
11.5	-9.8	0
12	-9.8	0
12.5	-9.8	0
13	-9.8	0
13.5	-9.8	0
14	-9.8	0
14.5	-9.8	0
15	-9.8	0
15.5	-9.8	0
16	-9.8	0
16.5	-9.8	0
17	-9.8	0
17.5	-9.8	0
18	-9.8	0
18.5	-9.8	0
19	-9.8	0
19.5	-9.8	0
20	-9.8	0
20.5	-9.8	0
21	-9.8	0
21.5	-9.8	0
22	-9.8	0
22.5	-9.8	0
23	-9.8	0
23.5	-9.8	0
24	-9.8	0
24.5	-9.8	0
25	-9.8	0
25.5	-9.8	0
26	-9.8	0
26.5	-9.8	0
27	-9.8	0
27.5	-9.8	0
28	-9.8	0
28.5	-9.8	0
29	-9.8	0
29.5	-9.8	0
30	-9.8	0
30.5	-9.8	0
31	-9.8	0
31.5	-9.8	0
32	-9.8	0
32.5	-9.8	0
33	-9.8	0
33.5	-9.8	0
34	-9.8	0
34.5	-9.8	0
35	-9.8	0
35.5	-9.8	0
36	-9.8	0
36.5	-9.8	0
37	-9.8	0
37.5	-9.8	0
38	-9.8	0
38.5	-9.8	0
39	-9.8	0
39.5	-9.8	0
40	-9.8	0
40.5	-9.8	0
41	-9.8	0
41.5	-9.8	0
42	-9.8	0
42.5	-9.8	0
43	-9.8	0
43.5	-9.8	0
44	-9.8	0
44.5	-9.8	0
45	-9.8	0
45.5	-9.8	0
46	-9.8	0
46.5	-9.8	0
47	-9.8	0
47.5	-9.8	0
48	-9.8	0
48.5	-9.8	0
49	-9.8	0
49.5	-9.8	0
50	-9.8	0
0.5	-9.7	0
0	-9.7	0
1	-9.7	0
1.5	-9.7	0
2	-9.7	0
2.5	-9.7	0
3	-9.7	0
3.5	-9.7	0
4	-9.7	0
4.5	-9.7	0
5	-9.7	0
5.5	-9.7	0
6	-9.7	0
6.5	-9.7	0
7	-9.7	0
7.5	-9.7	0
8	-9.7	0
8.5	-9.7	0
9	-9.7	0
9.5	-9.7	0
10	-9.7	0
10.5	-9.7	0
11	-9.7	0
11.5	-9.7	0
12	-9.7	0
12.5	-9.7	0
13	-9.7	0
13.5	-9.7	0
14	-9.7	0
14.5	-9.7	0
15	-9.7	0
15.5	-9.7	0
16	-9.7	0
16.5	-9.7	0
17	-9.7	0
17.5	-9.7	0
18	-9.7	0
18.5	-9.7	0
19	-9.7	0
19.5	-9.7	0
20	-9.7	0
20.5	-9.7	0
21	-9.7	0
21.5	-9.7	0
22	-9.7	0
22.5	-9.7	0
23	-9.7	0
23.5	-9.7	0
24	-9.7	0
24.5	-9.7	0
25	-9.7	0
25.5	-9.7	0
26	-9.7	0
26.5	-9.7	0
27	-9.7	0
27.5	-9.7	0
28	-9.7	0
28.5	-9.7	0
29	-9.7	0
29.5	-9.7	0
30	-9.7	0
30.5	-9.7	0
31	-9.7	0
31.5	-9.7	0
32	-9.7	0
32.5	-9.7	0
33	-9.7	0
33.5	-9.7	0
34	-9.7	0
34.5	-9.7	0
35	-9.7	0
35.5	-9.7	0
36	-9.7	0
36.5	-9.7	0
37	-9.7	0
37.5	-9.7	0
38	-9.7	0
38.5	-9.7	0
39	-9.7	0
39.5	-9.7	0
40	-9.7	0
40.5	-9.7	0
41	-9.7	0
41.5	-9.7	0
42	-9.7	0
42.5	-9.7	0
43	-9.7	0
43.5	-9.7	0
44	-9.7	0
44.5	-9.7	0
45	-9.7	0
45.5	-9.7	0
46	-9.7	0
46.5	-9.7	0
47	-9.7	0
47.5	-9.7	0
48	-9.7	0
48.5	-9.7	0
49	-9.7	0
49.5	-9.7	0
50	-9.7	0
0.5	-9.6	0
0	-9.6	0
1	-9.6	0
1.5	-9.6	0
2	-9.6	0
2.5	-9.6	0
3	-9.6	0
3.5	-9.6	0
4	-9.6	0
4.5	-9.6	0
5	-9.6	0
5.5	-9.6	0
6	-9.6	0
6.5	-9.6	0
7	-9.6	0
7.5	-9.6	0
8	-9.6	0
8.5	-9.6	0
9	-9.6	0
9.5	-9.6	0
10	-9.6	0
10.5	-9.6	0
11	-9.6	0
11.5	-9.6	0
12	-9.6	0
12.5	-9.6	0
13	-9.6	0
13.5	-9.6	0
14	-9.6	0
14.5	-9.6	0
15	-9.6	0
15.5	-9.6	0
16	-9.6	0
16.5	-9.6	0
17	-9.6	0
17.5	-9.6	0
18	-9.6	0
18.5	-9.6	0
19	-9.6	0
19.5	-9.6	0
20	-9.6	0
20.5	-9.6	0
21	-9.6	0
21.5	-9.6	0
22	-9.6	0
22.5	-9.6	0
23	-9.6	0
23.5	-9.6	0
24	-9.6	0
24.5	-9.6	0
25	-9.6	0
25.5	-9.6	0
26	-9.6	0
26.5	-9.6	0
27	-9.6	0
27.5	-9.6	0
28	-9.6	0
28.5	-9.6	0
29	-9.6	0
29.5	-9.6	0
30	-9.6	0
30.5	-9.6	0
31	-9.6	0
31.5	-9.6	0
32	-9.6	0
32.5	-9.6	0
33	-9.6	0
33.5	-9.6	0
34	-9.6	0
34.5	-9.6	0
35	-9.6	0
35.5	-9.6	0
36	-9.6	0
36.5	-9.6	0
37	-9.6	0
37.5	-9.6	0
38	-9.6	0
38.5	-9.6	0
39	-9.6	0
39.5	-9.6	0
40	-9.6	0
40.5	-9.6	0
41	-9.6	0
41.5	-9.6	0
42	-9.6	0
42.5	-9.6	0
43	-9.6	0
43.5	-9.6	0
44	-9.6	0
44.5	-9.6	0
45	-9.6	0
45.5	-9.6	0
46	-9.6	0
46.5	-9.6	0
47	-9.6	0
47.5	-9.6	0
48	-9.6	0
48.5	-9.6	0
49	-9.6	0
49.5	-9.6	0
50	-9.6	0
0.5	-9.5	0
0	-9.5	0
1	-9.5	0
1.5	-9.5	0
2	-9.5	0
2.5	-9.5	0
3	-9.5	0
3.5	-9.5	0
4	-9.5	0
4.5	-9.5	0
5	-9.5	0
5.5	-9.5	0
6	-9.5	0
6.5	-9.5	0
7	-9.5	0
7.5	-9.5	0
8	-9.5	0
8.5	-9.5	0
9	-9.5	0
9.5	-9.5	0
10	-9.5	0
10.5	-9.5	0
11	-9.5	0
11.5	-9.5	0
12	-9.5	0
12.5	-9.5	0
13	-9.5	0
13.5	-9.5	0
14	-9.5	0
14.5	-9.5	0
15	-9.5	0
15.5	-9.5	0
16	-9.5	0
16.5	-9.5	0
17	-9.5	0
17.5	-9.5	0
18	-9.5	0
18.5	-9.5	0
19	-9.5	0
19.5	-9.5	0
20	-9.5	0
20.5	-9.5	0
21	-9.5	0
21.5	-9.5	0
22	-9.5	0
22.5	-9.5	0
23	-9.5	0
23.5	-9.5	0
24	-9.5	0
24.5	-9.5	0
25	-9.5	0
25.5	-9.5	0
26	-9.5	0
26.5	-9.5	0
27	-9.5	0
27.5	-9.5	0
28	-9.5	0
28.5	-9.5	0
29	-9.5	0
29.5	-9.5	0
30	-9.5	0
30.5	-9.5	0
31	-9.5	0
31.5	-9.5	0
32	-9.5	0
32.5	-9.5	0
33	-9.5	0
33.5	-9.5	0
34	-9.5	0
34.5	-9.5	0
35	-9.5	0
35.5	-9.5	0
36	-9.5	0
36.5	-9.5	0
37	-9.5	0
37.5	-9.5	0
38	-9.5	0
38.5	-9.5	0
39	-9.5	0
39.5	-9.5	0
40	-9.5	0
40.5	-9.5	0
41	-9.5	0
41.5	-9.5	0
42	-9.5	0
42.5	-9.5	0
43	-9.5	0
43.5	-9.5	0
44	-9.5	0
44.5	-9.5	0
45	-9.5	0
45.5	-9.5	0
46	-9.5	0
46.5	-9.5	0
47	-9.5	0
47.5	-9.5	0
48	-9.5	0
48.5	-9.5	0
49	-9.5	0
49.5	-9.5	0
50	-9.5	0
0.5	-9.4	0
0	-9.4	0
1	-9.4	0
1.5	-9.4	0
2	-9.4	0
2.5	-9.4	0
3	-9.4	0
3.5	-9.4	0
4	-9.4	0
4.5	-9.4	0
5	-9.4	0
5.5	-9.4	0
6	-9.4	0
6.5	-9.4	0
7	-9.4	0
7.5	-9.4	0
8	-9.4	0
8.5	-9.4	0
9	-9.4	0
9.5	-9.4	0
10	-9.4	0
10.5	-9.4	0
11	-9.4	0
11.5	-9.4	0
12	-9.4	0
12.5	-9.4	0
13	-9.4	0
13.5	-9.4	0
14	-9.4	0
14.5	-9.4	0
15	-9.4	0
15.5	-9.4	0
16	-9.4	0
16.5	-9.4	0
17	-9.4	0
17.5	-9.4	0
18	-9.4	0
18.5	-9.4	0
19	-9.4	0
19.5	-9.4	0
20	-9.4	0
20.5	-9.4	0
21	-9.4	0
21.5	-9.4	0
22	-9.4	0
22.5	-9.4	0
23	-9.4	0
23.5	-9.4	0
24	-9.4	0
24.5	-9.4	0
25	-9.4	0
25.5	-9.4	0
26	-9.4	0
26.5	-9.4	0
27	-9.4	0
27.5	-9.4	0
28	-9.4	0
28.5	-9.4	0
29	-9.4	0
29.5	-9.4	0
30	-9.4	0
30.5	-9.4	0
31	-9.4	0
31.5	-9.4	0
32	-9.4	0
32.5	-9.4	0
33	-9.4	0
33.5	-9.4	0
34	-9.4	0
34.5	-9.4	0
35	-9.4	0
35.5	-9.4	0
36	-9.4	0
36.5	-9.4	0
37	-9.4	0
37.5	-9.4	0
38	-9.4	0
38.5	-9.4	0
39	-9.4	0
39.5	-9.4	0
40	-9.4	0
40.5	-9.4	0
41	-9.4	0
41.5	-9.4	0
42	-9.4	0
42.5	-9.4	0
43	-9.4	0
43.5	-9.4	0
44	-9.4	0
44.5	-9.4	0
45	-9.4	0
45.5	-9.4	0
46	-9.4	0
46.5	-9.4	0
47	-9.4	0
47.5	-9.4	0
48	-9.4	0
48.5	-9.4	0
49	-9.4	0
49.5	-9.4	0
50	-9.4	0
0.5	-9.3	0
0	-9.3	0
1	-9.3	0
1.5	-9.3	0
2	-9.3	0
2.5	-9.3	0
3	-9.3	0
3.5	-9.3	0
4	-9.3	0
4.5	-9.3	0
5	-9.3	0
5.5	-9.3	0
6	-9.3	0
6.5	-9.3	0
7	-9.3	0
7.5	-9.3	0
8	-9.3	0
8.5	-9.3	0
9	-9.3	0
9.5	-9.3	0
10	-9.3	0
10.5	-9.3	0
11	-9.3	0
11.5	-9.3	0
12	-9.3	0
12.5	-9.3	0
13	-9.3	0
13.5	-9.3	0
14	-9.3	0
14.5	-9.3	0
15	-9.3	0
15.5	-9.3	0
16	-9.3	0
16.5	-9.3	0
17	-9.3	0
17.5	-9.3	0
18	-9.3	0
18.5	-9.3	0
19	-9.3	0
19.5	-9.3	0
20	-9.3	0
20.5	-9.3	0
21	-9.3	0
21.5	-9.3	0
22	-9.3	0
22.5	-9.3	0
23	-9.3	0
23.5	-9.3	0
24	-9.3	0
24.5	-9.3	0
25	-9.3	0
25.5	-9.3	0
26	-9.3	0
26.5	-9.3	0
27	-9.3	0
27.5	-9.3	0
28	-9.3	0
28.5	-9.3	0
29	-9.3	0
29.5	-9.3	0
30	-9.3	0
30.5	-9.3	0
31	-9.3	0
31.5	-9.3	0
32	-9.3	0
32.5	-9.3	0
33	-9.3	0
33.5	-9.3	0
34	-9.3	0
34.5	-9.3	0
35	-9.3	0
35.5	-9.3	0
36	-9.3	0
36.5	-9.3	0
37	-9.3	0
37.5	-9.3	0
38	-9.3	0
38.5	-9.3	0
39	-9.3	0
39.5	-9.3	0
40	-9.3	0
40.5	-9.3	0
41	-9.3	0
41.5	-9.3	0
42	-9.3	0
42.5	-9.3	0
43	-9.3	0
43.5	-9.3	0
44	-9.3	0
44.5	-9.3	0
45	-9.3	0
45.5	-9.3	0
46	-9.3	0
46.5	-9.3	0
47	-9.3	0
47.5	-9.3	0
48	-9.3	0
48.5	-9.3	0
49	-9.3	0
49.5	-9.3	0
50	-9.3	0
0.5	-9.2	0
0	-9.2	0
1	-9.2	0
1.5	-9.2	0
2	-9.2	0
2.5	-9.2	0
3	-9.2	0
3.5	-9.2	0
4	-9.2	0
4.5	-9.2	0
5	-9.2	0
5.5	-9.2	0
6	-9.2	0
6.5	-9.2	0
7	-9.2	0
7.5	-9.2	0
8	-9.2	0
8.5	-9.2	0
9	-9.2	0
9.5	-9.2	0
10	-9.2	0
10.5	-9.2	0
11	-9.2	0
11.5	-9.2	0
12	-9.2	0
12.5	-9.2	0
13	-9.2	0
13.5	-9.2	0
14	-9.2	0
14.5	-9.2	0
15	-9.2	0
15.5	-9.2	0
16	-9.2	0
16.5	-9.2	0
17	-9.2	0
17.5	-9.2	0
18	-9.2	0
18.5	-9.2	0
19	-9.2	0
19.5	-9.2	0
20	-9.2	0
20.5	-9.2	0
21	-9.2	0
21.5	-9.2	0
22	-9.2	0
22.5	-9.2	0
23	-9.2	0
23.5	-9.2	0
24	-9.2	0
24.5	-9.2	0
25	-9.2	0
25.5	-9.2	0
26	-9.2	0
26.5	-9.2	0
27	-9.2	0
27.5	-9.2	0
28	-9.2	0
28.5	-9.2	0
29	-9.2	0
29.5	-9.2	0
30	-9.2	0
30.5	-9.2	0
31	-9.2	0
31.5	-9.2	0
32	-9.2	0
32.5	-9.2	0
33	-9.2	0
33.5	-9.2	0
34	-9.2	0
34.5	-9.2	0
35	-9.2	0
35.5	-9.2	0
36	-9.2	0
36.5	-9.2	0
37	-9.2	0
37.5	-9.2	0
38	-9.2	0
38.5	-9.2	0
39	-9.2	0
39.5	-9.2	0
40	-9.2	0
40.5	-9.2	0
41	-9.2	0
41.5	-9.2	0
42	-9.2	0
42.5	-9.2	0
43	-9.2	0
43.5	-9.2	0
44	-9.2	0
44.5	-9.2	0
45	-9.2	0
45.5	-9.2	0
46	-9.2	0
46.5	-9.2	0
47	-9.2	0
47.5	-9.2	0
48	-9.2	0
48.5	-9.2	0
49	-9.2	0
49.5	-9.2	0
50	-9.2	0
0.5	-9.1	0
0	-9.1	0
1	-9.1	0
1.5	-9.1	0
2	-9.1	0
2.5	-9.1	0
3	-9.1	0
3.5	-9.1	0
4	-9.1	0
4.5	-9.1	0
5	-9.1	0
5.5	-9.1	0
6	-9.1	0
6.5	-9.1	0
7	-9.1	0
7.5	-9.1	0
[...]
CELL_DATA 10000
SCALARS Coverage double 1
LOOKUP_TABLE default
-0.27292990243425 -0.24537312752755 -0.21923950749765 -0.19457523774492 -0.17141448013259 -0.14980736571019 -0.12969706958062 -0.11089148357244 -0.093504309359404 -0.077603641009019 -0.062921312673936 -0.04954351708445 -0.03730295734075 -0.026158660954593 -0.015937033500245 -0.0064544413346337 0.0020040500115296 0.0098580228799552 0.016899740858672 0.023420132614722 0.029267279760841 0.034769970700705 0.039687759103402 0.044302628959961 0.048645647945455 0.0524341325803 0.056149902713925 0.059350929079345 0.062340182462264 0.065085650527789 0.067723855371558 0.070173056599495 0.072632415234183 0.075037605673492 0.077130700508423 0.079210069733466 0.081400529095196 0.083429932954876 0.085398464229215 0.087350443840461 0.089031120679618 0.090588043270075 0.091887723021268 0.093038685418576 0.093991490986223 0.094860485926096 0.09520453690722 0.095337398881791 0.095102070383682 0.09461725198233 0.093917226643818 0.093192222647329 0.092406305637195 0.091729217708136 0.091123013199156 0.090611582001168 0.089956079050519 0.08924345819416 0.088368538363992 0.087351763995505 0.086195603043005 0.08474688852252 0.083243657658211 0.081399849664254 0.079087139883461 0.076346751455832 0.073236096372664 0.069525021355573 0.065400614319354 0.06068939008884 0.055474797958611 0.049577832874317 0.043173134286499 0.036339937770126 0.028960311685377 0.021155274798853 0.012817562230846 0.004085617492515 -0.0052028797534995 -0.014775966804138 -0.024973749227615 -0.03549124535012 -0.046635582772523 -0.05830657791025 -0.070591693122896 -0.083283007745845 -0.096458596064607 -0.11023085948658 -0.1243469083023 -0.13940092438492 -0.15537888508862 -0.17203089756346 -0.18945206466786 -0.20782633671979 -0.22727127701565 -0.24802087806231 -0.26995222341818 -0.29292953415335 -0.31690893036703 -0.34191124201141 -0.26164735392133 -0.23375113247684 -0.20730498823854 -0.1823511519761 -0.15893301423486 -0.13708820664285 -0.11677745677177 -0.09782506723317 -0.080298690521313 -0.06424387484976 -0.049472445725895 -0.035986277078179 -0.023659391787297 -0.012433865468776 -0.0021450890165234 0.0073582476635266 0.015904927805904 0.023770917242056 0.030886700157058 0.037405053100008 0.043327877152657 0.048818804913572 0.053795166331416 0.058440235002193 0.062767686132257 0.06662968617037 0.070309915725667 0.073556637247203 0.076527388035173 0.079287337330504 0.08189968128982 0.084370501794449 0.086831586320064 0.0891987041187 0.091318329913665 0.09338151714729 0.095553898006598 0.097603919002989 0.099571682163371 0.10148614640738 0.10319877314787 0.10473164818496 0.10603173735932 0.10714198007795 0.10811962912942 0.10895667805874 0.10932989813712 0.10943162781161 0.10922986202377 0.10873855805685 0.10805262766672 0.10732185569399 0.10658394154871 0.10589447960394 0.10534074174965 0.10485398739508 0.10425286924987 0.10356991120101 0.10276004286092 0.10180237172571 0.10067357920313 0.09929710437597 0.097834921578231 0.096017334889403 0.093759846158538 0.091050855599801 0.087949378813345 0.084278605171574 0.080150048283467 0.075449291677448 0.070202828633525 0.064296447575521 0.057870374897442 0.050984521932343 0.043589808784729 0.035737861273534 0.02735067284218 0.018525561774597 0.0092208901718152 -0.00045688987196382 -0.010696232280702 -0.021299285588782 -0.032514960984503 -0.044312665192983 -0.056662205338592 -0.069454159745754 -0.082763422577397 -0.096616007292114 -0.11087086740444 -0.12606450059934 -0.14215586382332 -0.15898513618559 -0.17657596649678 -0.19511995256841 -0.21478297634416 -0.2357711900387 -0.2579704485056 -0.28122509718268 -0.30550035439736 -0.3308204716892 -0.25026802651497 -0.22202529726178 -0.19525826276093 -0.17001067458578 -0.14633041453099 -0.1242492229408 -0.10373540179207 -0.084627853053867 -0.066963067253382 -0.050760694014077 -0.035892070166125 -0.022306688311713 -0.009894768494642 0.0014080822125759 0.011759725003833 0.021299900703692 0.029910500800226 0.037810770319142 0.044974820660595 0.051511754001578 0.057483895274004 0.062987434317296 0.06800359019912 0.072679022956208 0.077006513607014 0.080921639674398 0.084588888548568 0.087859840150658 0.090818441030994 0.093591507603757 0.096190375555338 0.098666620892811 0.10112321553795 0.10347207564709 0.10559909593812 0.10765483556526 0.10981595521333 0.11187819968118 0.11384233221274 0.11573399740031 0.11745884414212 0.11898108727075 0.12027536868154 0.12136097562648 0.12234382335448 0.12316490044763 0.12354887667696 0.12364133091818 0.12345684358048 0.12296633808984 0.12229284382579 0.12156460001276 0.12085462146247 0.120173369585 0.11965486804532 0.1192048898297 0.11865319005845 0.11801031401233 0.11725343603938 0.11636346372088 0.11527792449333 0.11396196173253 0.11254634002781 0.1107643710861 0.10854690810736 0.10587748980384 0.10279742659593 0.099156585758777 0.095028887941938 0.090331502424651 0.085059872201762 0.07914130272726 0.072690723301661 0.065766423149762 0.058340368151211 0.050445099676782 0.042007244589133 0.033106906128843 0.023762657305483 0.014000246845969 0.0037014925191944 -0.0069804871342222 -0.018273869725519 -0.030174254059888 -0.042611126035269 -0.055502842821358 -0.068924593557819 -0.082875807478458 -0.097259117852224 -0.11257907657347 -0.12880530984311 -0.14580308897503 -0.16356037616184 -0.18228028737765 -0.20216460529815 -0.2233890379211 -0.24586071325831 -0.26939615132624 -0.29397278586472 -0.31961991828962 -0.23879472276323 -0.21019766316151 -0.18310258405476 -0.15755521255707 -0.13360879442515 -0.11129107508178 -0.090571977879688 -0.071304718630011 -0.053498111019787 -0.03715517996237 -0.022184441477616 -0.0085046659886063 0.003991843896293 0.015367472181217 0.025781317290963 0.035364541680484 0.044027678023058 0.051969646871863 0.059169503952072 0.065737309949353 0.071744268870006 0.077271447073791 0.082318288571363 0.087023084206522 0.091360979684068 0.095315001075555 0.098977902614375 0.10226335283036 0.10521111712035 0.10800034774796 0.11059246438723 0.11306688947589 0.11551580951069 0.11785451766005 0.11998031251073 0.12203885782942 0.12418764486829 0.12625558868652 0.12821586861931 0.13009358814992 0.13182064395868 0.13334182235526 0.13462151253309 0.1356909152452 0.13667007901985 0.13748131551529 0.13787051011936 0.13796548800304 0.13778321452745 0.13730111568849 0.1366387349107 0.13591535812638 0.13522642514709 0.1345666512171 0.13407030708534 0.13366391492753 0.13316087897977 0.13256246896206 0.13186044645335 0.13104347779042 0.13000411510422 0.12874953140206 0.12737630692308 0.12563711940663 0.12346031077133 0.12083373254744 0.11777775147988 0.1141645812212 0.11003421771939 0.10534189561016 0.10004503331461 0.094121945913176 0.087637610697718 0.080676594208753 0.073215935200962 0.065284245871537 0.056788112179915 0.047822603116166 0.03842216258113 0.028586745777585 0.018225390711659 0.0074669525171851 -0.0039092524276311 -0.015903128182472 -0.028434201967649 -0.041423169301544 -0.054948669087376 -0.069005936342576 -0.083513324006547 -0.098955078079304 -0.1153213594398 -0.13248181916684 -0.15041190236653 -0.16930765553928 -0.18941155784729 -0.21087818557182 -0.23362672251892 -0.25744801766442 -0.28232732220939 -0.3083011915282 -0.22722601700863 -0.19826944322397 -0.17083956056057 -0.14498661130174 -0.12077064215184 -0.098214378615377 -0.077286884474372 -0.057855550216746 -0.03990484469483 -0.023426612760531 -0.0083516353932678 0.005419133688385 0.017999868792668 0.029444070490093 0.039923844233418 0.049550022302834 0.058262642689771 0.066244181947838 0.073473577163529 0.080077578681002 0.086115273121679 0.091667903617945 0.096740321793104 0.10147590833128 0.1058251709059 0.10981086814142 0.11347872000902 0.1167720871601 0.11971404930693 0.12251433569008 0.12510647256465 0.12757396510275 0.13001278098268 0.13234370502003 0.13446964152817 0.13653166274948 0.13866870338858 0.14073600888639 0.14269532844535 0.14456409108199 0.14628985692243 0.14780928916539 0.14907553441724 0.15012634431948 0.15109552376414 0.15190371067387 0.1523016918178 0.1524010619139 0.15221676351788 0.15173817711701 0.15108701394824 0.15037633969993 0.14970700254337 0.14907481080173 0.1485959067468 0.14822700834634 0.14777788732276 0.14722702743076 0.14657856625126 0.14584018542146 0.1448501390162 0.14365491673338 0.14232516124824 0.14063682170855 0.13849541525073 0.13591761082301 0.13288432129008 0.12929757148139 0.12516869512017 0.12048093958222 0.11515785666304 0.10922776172566 0.10270855521091 0.095718262284193 0.088225314538526 0.080253256009563 0.071694853349978 0.062666445618162 0.053202650654013 0.04330264169192 0.032879399658214 0.022042468972312 0.010590033762947 -0.0015022309897118 -0.014117741133118 -0.02720703106117 -0.040838168514098 -0.055001657338172 -0.06963473367052 -0.085195583174519 -0.10170731758652 -0.11902556006379 -0.13712918412587 -0.1562050783334 -0.17652791808909 -0.19824388289924 -0.2212701690699 -0.24538438623214 -0.27056700113484 -0.29686797756639 -0.21557258902882 -0.18624056129615 -0.15847088015383 -0.1323069433592 -0.10781761408799 -0.085020516410689 -0.063882375993554 -0.044284103377308 -0.026186098560169 -0.0095745225165347 0.0056035585941913 0.019464414046232 0.032128459190599 0.04363890775302 0.054184980752341 0.063852178870628 0.072613189057763 0.080632322099763 0.087891846933282 0.094530649800977 0.1005990878661 0.10617725185593 0.1112724444717 0.11603527589136 0.12039888699002 0.12441383567549 0.12809156728076 0.13138709786994 0.13432648564594 0.1371385295729 0.13973216423546 0.14218863543958 0.14461848932961 0.14694140611461 0.14907051598826 0.15113291566559 0.15325866362605 0.15532770937962 0.15728123794278 0.15914295720197 0.16087104272625 0.16238255522605 0.16363479218971 0.16467207731465 0.16563467486627 0.16643087606584 0.16684328280817 0.1669428033545 0.16675660863225 0.16628521190146 0.1656447614156 0.16494649801974 0.16429558899513 0.16369078363824 0.16322768410205 0.16290247566268 0.16251299318255 0.16200425792983 0.16141627502911 0.16075084204161 0.15981283403583 0.15868094110755 0.15740111491416 0.15576222680362 0.15366098308865 0.1511249694303 0.14811653481513 0.1445577823257 0.14043589870369 0.13574963634749 0.13040437365799 0.12445853991879 0.11790610315462 0.11088443991317 0.10336479342524 0.095348126550449 0.086733411658058 0.077637580248559 0.068109336791905 0.05814539154322 0.047661205763394 0.036746879214928 0.025223715011781 0.013035760850964 0.00033372638466647 -0.012853461269577 -0.026594380480304 -0.040862154135175 -0.055621082563898 -0.071302887076784 -0.087962466251091 -0.10543955396181 -0.12371493752892 -0.14297488793906 -0.16351987786129 -0.18548769581798 -0.20879654278331 -0.23320799531147 -0.2586967156874 -0.28532265909133 -0.20382695084797 -0.17411204614126 -0.14599697621502 -0.11951729511242 -0.094750787168725 -0.071709526555926 -0.050360825397852 -0.030590790539864 -0.012345627588953 0.0043985201375151 0.019678597114128 0.03362953651691 0.046373327439355 0.057948985732653 0.068560196562705 0.078268956996068 0.087079323714718 0.095131316983472 0.10242321328842 0.10909511029858 0.11519523593377 0.12079859001992 0.12592029256479 0.13070750553 0.13508315628013 0.13913245920561 0.14281727203863 0.1461111672707 0.1490536422037 0.15187254788789 0.15446718111458 0.15692149100623 0.15933465476818 0.16164801315194 0.16378266169143 0.16584140514049 0.16795706606279 0.17003268719534 0.17197785552399 0.17382818406326 0.17556112830057 0.17706136315588 0.17830248437265 0.17933158433859 0.18028461856346 0.1810646469026 0.18149211264676 0.18159084111685 0.18140451235873 0.18094451811739 0.18031234289822 0.17962707928764 0.17899066052125 0.1784164622228 0.17796759577925 0.17769131149455 0.17736012699171 0.17689783310912 0.17636863429195 0.17577924146582 0.17489105962983 0.17383089855571 0.17260347198209 0.17101663074933 0.1689545605375 0.16645724592263 0.16347679643186 0.15994519667401 0.15583636645109 0.1511458252175 0.14578548199744 0.13981563193405 0.13323190031758 0.12617962407844 0.11863443897914 0.11057003943746 0.10190863675704 0.092737751361791 0.083150976058314 0.073112596924438 0.062569994324649 0.051579408807377 0.039989867992456 0.027711594050853 0.014918951937563 0.0016355382768102 -0.012218496596978 -0.026587113819684 -0.041474044264082 -0.05727739621665 -0.074086850201725 -0.091723496314054 -0.11017228942396 -0.12961497329723 -0.15038400810233 -0.17260936751205 -0.19620588838614 -0.22091896549674 -0.24671886190246 -0.27366355879995 -0.19199090068636 -0.16188862685906 -0.13342084201448 -0.10662011040119 -0.081569525591579 -0.058284155848848 -0.036724244360089 -0.016776672535539 0.0016140489000028 0.018490390726788 0.033872310803698 0.047914789347857 0.060734475767001 0.072374943133308 0.083048763134862 0.092799105448773 0.10165911681944 0.10974191532052 0.11706915749515 0.12377178636354 0.12990776866534 0.13553391462754 0.14068600811019 0.14549179535619 0.14988528618396 0.15396116876483 0.15765352441715 0.16095044133615 0.16389604061876 0.16672191438442 0.1693157965581 0.1717642347439 0.17416316923089 0.17647017964471 0.17860667760272 0.18066780972887 0.18277542256998 0.18485104312848 0.18678672940148 0.18863097396482 0.19036556819677 0.19185686301923 0.19308249852449 0.19410265826821 0.19504331935631 0.19581751095021 0.19625423577054 0.1963525725059 0.196164139188 0.1957105408269 0.19509248983217 0.1944185330732 0.19379506839584 0.19325702020031 0.19282903516658 0.19259438768743 0.1923171666592 0.19191092140342 0.19144460994567 0.1909307570529 0.1901035410948 0.18910245144639 0.18792739869677 0.18639990916077 0.18437916033799 0.1819227903511 0.17897057601814 0.17546193863633 0.17136284050491 0.16667084719348 0.16129832247656 0.15530538782396 0.14869050135792 0.14160278270172 0.13402982951085 0.12592092715622 0.11721012509126 0.10797238541281 0.09832187254273 0.088213151302316 0.077607654128351 0.066542904113544 0.054883537599929 0.042515655596895 0.029632563295702 0.016251246100752 0.0022869561724622 -0.01218234683785 -0.027182263625048 -0.043117205019153 -0.060076241639841 -0.077876764641258 -0.09650054037265 -0.11613162651315 -0.1371275865219 -0.15961222945892 -0.18349695002741 -0.20852125293709 -0.23463661438822 -0.26190604673305 -0.18006590534933 -0.1495726289872 -0.12074531347964 -0.093617841215398 -0.068278651818339 -0.044747706265016 -0.022974364119602 -0.0028474177764032 0.015690329807754 0.0326979867555 0.048183681729534 0.062316100541691 0.07521046483495 0.086914726158755 0.097649560443238 0.10744472440374 0.11635032310092 0.12446434347993 0.13182802193957 0.13855835027863 0.14473467975404 0.15038548771982 0.1555658113043 0.16038748502627 0.16480037400637 0.16890569412599 0.17260793937446 0.17590989256735 0.17885987703727 0.18169029489035 0.1842834543545 0.18671792261739 0.18910384216342 0.19141498031205 0.19355043286761 0.19561275724379 0.19770856470602 0.19978386261838 0.20171333393593 0.20355372850518 0.20528326812808 0.20677453465925 0.20798135860816 0.20898415439552 0.20991200091445 0.21068065235927 0.21113038102687 0.21122987413637 0.21103767064719 0.21058577018893 0.20997699780524 0.20931830794264 0.2087120374253 0.2082073388365 0.20780701454598 0.20761011128613 0.20738929749362 0.20704507112611 0.20664548570237 0.20620532700332 0.20544577264441 0.20450057809054 0.20338279465767 0.20190642626959 0.19993491991298 0.19752397286947 0.19459971575975 0.1911102180124 0.187022362717 0.182330178118 0.17694448326414 0.17093016143617 0.16428250839932 0.15715442496329 0.14956083722809 0.14139845475644 0.13264477783495 0.12334242427475 0.11362491211279 0.10344486865989 0.092770418600864 0.081641313573813 0.069906764937247 0.057456652862189 0.044480788224101 0.03099778743967 0.016927450373526 0.0023559174761428 -0.012758367030923 -0.028830573607173 -0.045937547735928 -0.063903658623833 -0.082702851325052 -0.10252773375422 -0.12375121851551 -0.1464988041216 -0.17067407991232 -0.19601581169172 -0.22245044676025 -0.25003987698577 -0.1680572645791 -0.13716609429695 -0.10797207784417 -0.080512874057984 -0.054881058660991 -0.031101983412794 -0.0091136090353038 0.011197039223674 0.029882166665812 0.047018378850565 0.062607588508903 0.07683001150138 0.089798879085074 0.10156617553684 0.11236463825863 0.12220246566306 0.1311541513559 0.13930020900731 0.14670548565357 0.15346486875977 0.15967882195443 0.16535187629783 0.17056223704646 0.17539880066071 0.17983736771625 0.18396242148234 0.18767990224827 0.1909855681395 0.19394513144342 0.19677975745015 0.19936794865514 0.20178768568047 0.2041698584552 0.20648389676507 0.20861627264764 0.21067893270792 0.21275619389045 0.21483207611879 0.21676130228484 0.2185905921111 0.2203184589341 0.22180840340056 0.22299084608144 0.22398105026094 0.22489848386016 0.22565755526448 0.22612299938895 0.22622528408626 0.22602176666511 0.22557396825215 0.22497840194616 0.22432926598534 0.22374405182727 0.22327099677086 0.22289520721467 0.22274193650322 0.22258366485249 0.22229797056797 0.22197275734564 0.22160110252565 0.22091383861733 0.22002594675772 0.2189668983261 0.21754600676505 0.21562439647188 0.21325538252881 0.21035423239988 0.20688897245418 0.20281313134999 0.19812135095034 0.19272526308027 0.18668611901718 0.18000766752207 0.17283804076579 0.16521871524632 0.15700940031967 0.14820910703663 0.13884231345598 0.12905532338527 0.11880810006759 0.10806011487751 0.096871838794806 0.08505732534943 0.0725243249805 0.059462697251938 0.045872597925291 0.031698045959373 0.017024857388427 0.0017935866808148 -0.014418798433997 -0.031669848888576 -0.049804378858588 -0.068783035012967 -0.088805827641886 -0.11025899140518 -0.13327227763509 -0.15774286573574 -0.18340664048342 -0.21016624453915 -0.23807375376342 -0.15596742728307 -0.12466960484685 -0.095101960206774 -0.067306436579769 -0.041378307179982 -0.01734884008935 0.0048580824897241 0.025352994792584 0.044186966614723 0.06145115268885 0.077142448974041 0.091456182361342 0.10449783003023 0.11633272245896 0.12719190205137 0.13707206977858 0.14607091417531 0.15425037556225 0.16169892516089 0.16849090584758 0.17473875597743 0.18043769627984 0.18567734356355 0.19053126385543 0.19499926384073 0.19914138788058 0.20287527472397 0.20618662085758 0.20915905958923 0.21199046903775 0.214580390288 0.2169843502253 0.21936049513474 0.22168190840967 0.22380946590691 0.2258641286747 0.22792916888123 0.23000804048459 0.23193349214707 0.23375343457846 0.23547398777831 0.23695799584757 0.2381241763256 0.23909796166877 0.24000143300225 0.24075670047993 0.24122840895176 0.24133265527522 0.24112432445635 0.24067844432274 0.24009508118258 0.23946113960451 0.23889271019643 0.23844242722282 0.23810625277422 0.23799421838627 0.2378970229798 0.23767586774459 0.23742041314377 0.23711449794822 0.23651515775386 0.2356833016087 0.23468234901773 0.23332468955843 0.23144987532046 0.229115750945 0.22625415425331 0.22280124439855 0.21873331561362 0.21404355731245 0.20863526557985 0.20257127534753 0.19586873426773 0.18865408127522 0.18100835121386 0.17276646749859 0.16390860080819 0.1544724726358 0.1446170133841 0.13429631898117 0.12348283527562 0.11223141342323 0.10033816682007 0.087726336745703 0.074572930592662 0.06087849247062 0.046597019327027 0.031822767741011 0.016473459905832 0.00012264395975793 -0.017278047880746 -0.035581400974691 -0.054741859035071 -0.07496620564276 -0.096654432835255 -0.11993654875731 -0.14470457611159 -0.17069624288512 -0.19778230214813 -0.22600907095007 -0.14380788192841 -0.11208324936264 -0.082134837250983 -0.053997553956501 -0.027770315447631 -0.0034879045875489 0.018939629679574 0.039619502982579 0.058603777051615 0.075996529157631 0.091787786492996 0.10619312724397 0.11930728312194 0.13121183307336 0.14212949911925 0.15205656111853 0.16109923074126 0.16931512207622 0.17681161116483 0.18363483041314 0.1899154051068 0.19564123873019 0.20091356581806 0.20578717920828 0.21028568150576 0.21444230161477 0.21819388765963 0.22150847261566 0.22450184502895 0.22732671725695 0.22992129745151 0.23231150784745 0.23468567480521 0.23700592031993 0.23913378783341 0.24117313791423 0.243