# vtk DataFile Version 3.0
d-2__ created by libgimli-v1.5.0-1-g5991b6ac
ASCII
DATASET UNSTRUCTURED_GRID
POINTS 257 double
19.5	-0.25	0
19.643267391024	-0.375	0
19.690940791558	-0.19094079155751	0
22.625	-0.27380702240065	0
22.625	-0.13804348840204	0
22.518663902413	-0.18940103023301	0
22.458333333333	-0.087886572211468	0
22.416666666667	0	0
22.375	-0.13804348840204	0
22.291666666667	-0.087886572211468	0
22.333333333333	0	0
22.25	0	0
20.083333333333	0	0
20.041666666667	-0.13804348840203	0
20.125	-0.087886572211466	0
20.166666666667	0	0
20	0	0
20.708333333333	-0.13804348840203	0
20.666666666667	0	0
20.625	-0.087886572211466	0
20.208333333333	-0.07357428207177	0
20.75	0	0
20.791666666667	-0.087886572211464	0
20.333333333333	0	0
20.25	0	0
20.291666666667	-0.087886572211468	0
21.166666666667	0	0
21.208333333333	-0.07357428207177	0
21.25	0	0
20.416666666667	0	0
20.375	-0.13804348840204	0
20.458333333333	-0.087886572211468	0
21.291666666667	-0.087886572211468	0
21.333333333333	0	0
21.625	-0.13804348840204	0
21.518663902413	-0.18940103023301	0
21.625	-0.27380702240065	0
20.583333333333	0	0
22.916666666667	0	0
22.833333333333	0	0
22.875	-0.13804348840204	0
20.833333333333	0	0
20.875	-0.07357428207177	0
23.98747163413	-0.5056358037932	0
24.050519698408	-0.25547676721966	0
23.843533331918	-0.29816134131379	0
23.458333333333	-0.087886572211464	0
23.404607252882	-0.15094638411797	0
23.541666666667	-0.13804348840203	0
20.5	0	0
21.791666666667	-0.087886572211468	0
21.833333333333	0	0
21.75	0	0
21.231336097587	-0.18940103023302	0
21.125	-0.13804348840204	0
19.705488373266	-0.59091608366499	0
20.007921013115	-0.8717186506847	0
19.91135296792	-0.47048281487414	0
24.166666666667	0	0
24.208333333333	-0.087886572211464	0
24.25	0	0
21	0	0
20.916666666667	0	0
20.958333333333	-0.13804348840203	0
24.791666666667	-0.087886572211468	0
24.833333333333	0	0
24.75	0	0
21.041666666667	-0.087886572211464	0
21.083333333333	0	0
24.083333333333	0	0
24.125	-0.07357428207177	0
22.541666666667	-0.073574282071767	0
21.375	-0.13804348840204	0
21.416666666667	0	0
21.5	0	0
21.458333333333	-0.087886572211468	0
22.583333333333	0	0
22.666666666667	0	0
22.226291378505	-0.21877391554365	0
22.432011579996	-0.40775209656411	0
24.148002764253	-0.18940103023303	0
24.208717134119	-0.38392172835888	0
24.291666666667	-0.13804348840203	0
22.208333333333	-0.07357428207177	0
22.166666666667	0	0
22.125	-0.072182208352023	0
21.875	-0.13804348840204	0
20.237940586216	-0.15094638411797	0
21.916666666667	0	0
21.708333333333	-0.07357428207177	0
22.083333333333	0	0
22	0	0
22.041666666667	-0.13804348840203	0
20.190375288162	-0.21877391554366	0
21.958333333333	-0.087886572211464	0
20.541666666667	-0.073574282071767	0
20.571273919549	-0.15094638411796	0
20.317063962986	-0.25702488420529	0
21.541666666667	-0.073574282071767	0
22.5	0	0
23.583333333333	0	0
23.625	-0.087886572211466	0
22.791666666667	-0.087886572211468	0
20.203594889612	-0.40391444725954	0
21.583333333333	0	0
21.666666666667	0	0
22.75	0	0
22.958333333333	-0.087886572211464	0
23	0	0
23.041666666667	-0.13804348840203	0
22.708333333333	-0.07357428207177	0
23.083333333333	0	0
23.125	-0.087886572211466	0
23.166666666667	0	0
23.208333333333	-0.13804348840203	0
23.25	0	0
22.165334880767	-0.15260258505374	0
23.291666666667	-0.087886572211464	0
21.731336097587	-0.18940103023302	0
23.5	0	0
23.416666666667	0	0
23.333333333333	0	0
23.375	-0.07357428207177	0
23.666666666667	0	0
22.086941669094	-0.2859797646022	0
21.958333333333	-0.18219221742147	0
23.125	-0.18219221742148	0
23.228873378537	-0.27753669533404	0
23.708333333333	-0.07357428207177	0
23.041666666667	-0.23876614697008	0
22.958333333333	-0.18219221742147	0
23.833333333333	0	0
23.875	-0.13804348840204	0
23.916666666667	0	0
23.791666666667	-0.087886572211468	0
23.75	0	0
23.958333333333	-0.087886572211464	0
24	0	0
23.483730629652	-0.25702488420531	0
24.333333333333	0	0
24.375	-0.087886572211466	0
23.369620976373	-0.40603607246707	0
23.604159114629	-0.34842263547806	0
25.124752694808	-0.11296503030675	0
25	0	0
24.958333333333	-0.087886572211468	0
24.041666666667	-0.13804348840203	0
24.416666666667	0	0
24.458333333333	-0.07357428207177	0
24.875	-0.13804348840204	0
24.583333333333	0	0
24.541666666667	-0.13804348840203	0
24.625	-0.087886572211466	0
24.5	0	0
24.43533056908	-0.18940103023302	0
24.916666666667	0	0
24.385963434616	-0.36114994877356	0
24.708333333333	-0.07357428207177	0
24.666666666667	0	0
23.636111778917	-0.20065391017952	0
24.999752694808	-0.25100851870879	0
22.731336097587	-0.18940103023302	0
20.851997235747	-0.18940103023303	0
24.737940586216	-0.15094638411797	0
20.523708621495	-0.21877391554365	0
21.133853031742	-0.25547676721968	0
20.949480301592	-0.25547676721966	0
21.041666666667	-0.52911283384145	0
21.041666666667	-0.18219221742147	0
23.357041954828	-0.21877391554366	0
23.737940586216	-0.15094638411797	0
24.690375288162	-0.21877391554366	0
23.958333333333	-0.18219221742147	0
19.875	-0.11303967622539	0
19.75	0	0
20.650397296319	-0.25702488420526	0
21.292050467453	-0.38392172835888	0
21.414390113348	-0.63321254312708	0
21.469144028345	-0.36097200963104	0
21.848127708251	-0.28948918465343	0
22.848127708251	-0.28948918465343	0
22.726596951268	-0.4234584073117	0
23.731548923005	-0.26700761442393	0
24.817063962986	-0.25702488420529	0
20.031958747178	-0.33325463579056	0
20.523689393121	-0.44776195923934	0
23.184065504659	-0.43422319923747	0
23.545209981036	-0.61464357222601	0
24.552290248164	-0.29580321144285	0
25.25	0	0
20.800529041383	-0.37028063139366	0
23.130694908432	-0.28024272799092	0
22.907115884997	-0.43487734236883	0
25.5	-0.5	0
25.5	-0.25	0
25.356886217184	-0.375	0
25.308843572405	-0.19115642759521	0
25.5	0	0
21.681768476189	-0.55823447719905	0
23.041897355025	-0.3545575021244	0
22.950100433703	-0.28398118611486	0
23.746371622197	-0.43057135368151	0
23.045779100149	-0.5143168838031	0
21.615347366628	-0.83560735755964	0
21.971649595913	-0.56775148091581	0
22.235269600634	-0.41546210057925	0
22.346412380513	-0.73751448832674	0
22.007726950717	-0.98664640296265	0
20.322202955504	-0.72835150504623	0
23.798122080496	-0.68908130839227	0
24.703430397599	-0.40445925111313	0
24.914859484231	-0.44990795630246	0
23.247599241801	-0.70334449364573	0
25.053928463665	-0.58159990549132	0
25.221377875989	-0.67457110982012	0
25.225195424337	-0.49586438948828	0
24.530720924191	-0.4852517756918	0
24.323984230706	-0.57992151527177	0
19.84485407481	-1.2957460393421	0
19.743909551686	-0.8528010586154	0
24.746070739038	-0.72060716412098	0
23.604860290622	-0.8788438191921	0
23.043947453281	-1.1807973577914	0
23.54268225478	-1.3246684327942	0
23.849430697053	-0.99522786547226	0
24.043693421774	-0.75311160759413	0
22.849047319116	-0.69970565535729	0
25.000856094841	-0.87446921301307	0
25.5	-1	0
19.845623228308	-0.30002188546398	0
24.512369350266	-0.71824350459	0
24	-1.6666666666667	0
24.051778272566	-1.3024535658708	0
19.5	0	0
21.680522574649	-1.2514855461386	0
21.375	-1.6666666666667	0
21.75	-1.6666666666667	0
25.174325422113	-0.32450830281231	0
19.5	-0.5	0
20.747329141204	-0.71351083399284	0
19.5	-0.75	0
20.348572023727	-1.2023161679924	0
21.179597305363	-1.0673000334922	0
23.25	-1.6666666666667	0
19.5	-1	0
24.75	-1.6666666666667	0
25.013091550828	-1.3141602648437	0
24.625304590967	-1.106556793762	0
24.375	-1.6666666666667	0
24.189043391347	-0.96114657873573	0
22.064690440023	-1.391571216678	0
22.426745644615	-1.201505510398	0
19.5	-1.6666666666667	0
21	-1.6666666666667	0
20.25	-1.6666666666667	0
22.5	-1.6666666666667	0
25.5	-1.6666666666667	0
CELLS 429 1716
3	0	1	2	
3	3	4	5	
3	6	7	8	
3	9	10	11	
3	12	13	14	
3	14	15	12	
3	16	13	12	
3	17	18	19	
3	20	15	14	
3	7	10	8	
3	21	17	22	
3	23	24	25	
3	26	27	28	
3	29	30	31	
3	23	30	29	
3	28	32	33	
3	34	35	36	
3	19	18	37	
3	38	39	40	
3	22	41	21	
3	41	22	42	
3	43	44	45	
3	18	17	21	
3	46	47	48	
3	31	49	29	
3	50	51	52	
3	53	27	54	
3	55	56	57	
3	58	59	60	
3	61	62	63	
3	64	65	66	
3	67	68	61	
3	67	61	63	
3	69	70	58	
3	4	71	5	
3	72	73	33	
3	5	6	8	
3	74	73	75	
3	73	72	75	
3	76	4	77	
3	78	79	8	
3	80	81	82	
3	83	84	85	
3	50	86	51	
3	25	87	30	
3	86	88	51	
3	52	89	50	
3	90	91	92	
3	93	87	14	
3	94	92	91	
3	95	49	31	
3	9	8	10	
3	84	83	11	
3	19	95	96	
3	91	88	94	
3	25	30	23	
3	9	11	83	
3	97	30	87	
3	98	74	75	
3	99	71	76	
3	100	48	101	
3	33	32	72	
3	99	7	6	
3	41	42	62	
3	102	40	39	
3	71	99	6	
3	97	93	103	
3	104	34	105	
3	39	106	102	
3	74	98	104	
3	38	107	108	
3	107	109	108	
3	35	75	72	
3	106	110	102	
3	34	98	35	
3	28	27	32	
3	111	112	113	
3	109	111	108	
3	59	82	60	
3	113	114	115	
3	116	9	83	
3	114	117	115	
3	50	89	118	
3	119	120	46	
3	119	48	100	
3	110	106	77	
3	120	121	122	
3	89	52	105	
3	101	123	100	
3	124	92	125	
3	54	26	68	
3	114	126	127	
3	101	128	123	
3	129	109	130	
3	131	132	133	
3	134	131	135	
3	48	119	46	
3	115	117	121	
3	136	137	133	
3	47	138	48	
3	60	82	139	
3	82	140	139	
3	141	142	138	
3	143	144	145	
3	122	47	46	
3	146	137	136	
3	113	112	114	
3	134	132	131	
3	147	140	148	
3	149	65	64	
3	150	151	152	
3	150	153	151	
3	148	154	151	
3	147	148	153	
3	65	149	155	
3	59	58	70	
3	155	145	144	
3	82	81	156	
3	145	155	149	
3	146	69	137	
3	157	158	152	
3	154	140	82	
3	147	139	140	
3	101	48	159	
3	149	160	145	
3	102	110	161	
3	150	152	158	
3	42	22	162	
3	157	163	64	
3	5	71	6	
3	4	76	71	
3	85	84	90	
3	116	83	85	
3	96	31	164	
3	49	95	37	
3	15	20	24	
3	25	20	87	
3	14	13	93	
3	25	24	20	
3	165	166	167	
3	63	168	67	
3	54	68	67	
3	17	162	22	
3	63	62	42	
3	35	98	75	
3	34	104	98	
3	26	54	27	
3	63	42	162	
3	88	86	94	
3	125	94	86	
3	105	34	89	
3	118	89	34	
3	77	4	110	
3	161	110	4	
3	111	109	112	
3	126	112	109	
3	47	117	169	
3	120	122	46	
3	38	40	107	
3	130	107	40	
3	121	117	122	
3	117	114	169	
3	80	70	146	
3	123	128	135	
3	134	128	170	
3	159	48	138	
3	134	135	128	
3	163	152	171	
3	158	157	66	
3	154	148	140	
3	151	153	148	
3	69	146	70	
3	172	44	146	
3	9	78	8	
3	161	40	102	
3	90	92	85	
3	116	78	9	
3	92	94	125	
3	5	79	3	
3	164	31	30	
3	19	37	95	
3	173	16	174	
3	164	175	96	
3	17	19	96	
3	53	165	176	
3	53	32	27	
3	118	86	50	
3	175	17	96	
3	176	177	178	
3	118	36	179	
3	78	116	124	
3	180	3	181	
3	169	114	127	
3	114	112	126	
3	134	170	132	
3	133	132	136	
3	44	80	146	
3	146	136	172	
3	82	59	80	
3	152	151	171	
3	64	66	157	
3	80	59	70	
3	64	163	149	
3	170	101	159	
3	136	132	172	
3	85	92	116	
3	124	116	92	
3	97	164	30	
3	166	168	63	
3	14	87	20	
3	87	93	97	
3	117	47	122	
3	47	169	138	
3	101	170	128	
3	142	182	159	
3	132	45	172	
3	149	163	183	
3	31	96	95	
3	162	166	63	
3	184	93	13	
3	97	185	164	
3	156	154	82	
3	141	127	186	
3	142	141	187	
3	44	172	45	
3	152	163	157	
3	163	171	183	
3	103	93	184	
3	53	72	32	
3	154	188	151	
3	189	144	143	
3	185	175	164	
3	175	190	162	
3	118	179	86	
3	125	179	124	
3	109	107	130	
3	126	129	191	
3	161	180	40	
3	127	126	191	
3	169	141	138	
3	141	169	127	
3	125	86	179	
3	180	181	192	
3	193	194	195	
3	196	194	197	
3	149	183	160	
3	143	145	160	
3	167	176	165	
3	162	17	175	
3	198	178	177	
3	72	53	176	
3	118	34	36	
3	185	97	103	
3	126	109	129	
3	186	191	199	
3	180	130	40	
3	130	180	200	
3	161	4	3	
3	129	199	191	
3	138	142	159	
3	45	182	201	
3	130	200	129	
3	192	202	199	
3	202	186	199	
3	129	200	199	
3	142	187	201	
3	191	186	127	
3	180	192	200	
3	199	200	192	
3	180	161	3	
3	142	201	182	
3	54	67	168	
3	203	204	198	
3	79	5	8	
3	78	124	205	
3	182	170	159	
3	151	188	171	
3	185	190	175	
3	204	206	205	
3	201	43	45	
3	43	81	44	
3	207	206	204	
3	57	56	208	
3	44	81	80	
3	209	201	187	
3	35	72	178	
3	57	208	103	
3	13	16	173	
3	183	210	211	
3	141	212	187	
3	45	170	182	
3	213	214	215	
3	205	79	78	
3	216	156	217	
3	45	132	170	
3	196	197	189	
3	218	56	219	
3	178	198	36	
3	188	156	216	
3	220	211	210	
3	57	103	184	
3	204	179	198	
3	165	53	54	
3	221	222	223	
3	209	224	225	
3	43	217	81	
3	226	212	202	
3	214	227	228	
3	211	160	183	
3	210	171	188	
3	226	192	181	
3	193	215	214	
3	3	79	181	
3	205	206	79	
3	186	212	141	
3	212	186	202	
3	173	229	13	
3	167	177	176	
3	72	176	178	
3	206	226	181	
3	213	227	214	
3	217	230	216	
3	196	195	194	
3	231	232	223	
3	227	213	220	
3	206	181	79	
3	187	212	221	
3	173	174	2	
3	13	229	184	
3	174	233	2	
3	234	235	236	
3	196	189	143	
3	233	0	2	
3	160	237	143	
3	237	195	196	
3	1	0	238	
3	173	2	229	
3	177	203	198	
3	198	179	36	
3	239	190	185	
3	35	178	36	
3	192	226	202	
3	195	215	193	
3	188	216	210	
3	220	210	216	
3	213	237	211	
3	154	156	188	
3	124	179	204	
3	221	212	222	
3	240	219	55	
3	54	168	165	
3	196	143	237	
3	195	237	215	
3	55	1	238	
3	167	166	190	
3	2	1	229	
3	1	55	57	
3	190	166	162	
3	204	205	124	
3	241	208	56	
3	242	167	239	
3	223	222	243	
3	156	81	217	
3	160	211	237	
3	213	215	237	
3	183	171	210	
3	228	193	214	
3	219	244	218	
3	56	55	219	
3	184	229	57	
3	57	229	1	
3	220	213	211	
3	245	246	247	
3	230	220	216	
3	220	247	227	
3	248	247	232	
3	228	227	246	
3	55	238	240	
3	249	230	217	
3	247	249	232	
3	166	165	168	
3	221	209	187	
3	43	225	217	
3	209	43	201	
3	247	246	227	
3	190	239	167	
3	207	204	203	
3	208	185	103	
3	242	203	177	
3	207	250	251	
3	240	244	219	
3	252	218	244	
3	224	209	221	
3	217	225	249	
3	43	209	225	
3	241	242	239	
3	167	242	177	
3	253	242	241	
3	56	218	241	
3	212	226	222	
3	249	225	224	
3	234	250	207	
3	239	185	208	
3	231	223	243	
3	224	232	249	
3	252	254	218	
3	241	218	254	
3	253	241	254	
3	239	208	241	
3	206	207	251	
3	224	221	223	
3	223	232	224	
3	248	245	247	
3	234	207	203	
3	250	255	251	
3	251	226	206	
3	255	243	222	
3	249	247	230	
3	220	230	247	
3	203	242	234	
3	235	242	253	
3	255	222	251	
3	226	251	222	
3	232	231	248	
3	245	256	246	
3	228	246	256	
3	242	235	234	
3	234	236	250	
3	255	250	236	
CELL_TYPES 429
5 5 5 5 5 5 5 5 5 5 5 5 5 5 5 5 5 5 5 5 5 5 5 5 5 5 5 5 5 5 5 5 5 5 5 5 5 5 5 5 5 5 5 5 5 5 5 5 5 5 5 5 5 5 5 5 5 5 5 5 5 5 5 5 5 5 5 5 5 5 5 5 5 5 5 5 5 5 5 5 5 5 5 5 5 5 5 5 5 5 5 5 5 5 5 5 5 5 5 5 5 5 5 5 5 5 5 5 5 5 5 5 5 5 5 5 5 5 5 5 5 5 5 5 5 5 5 5 5 5 5 5 5 5 5 5 5 5 5 5 5 5 5 5 5 5 5 5 5 5 5 5 5 5 5 5 5 5 5 5 5 5 5 5 5 5 5 5 5 5 5 5 5 5 5 5 5 5 5 5 5 5 5 5 5 5 5 5 5 5 5 5 5 5 5 5 5 5 5 5 5 5 5 5 5 5 5 5 5 5 5 5 5 5 5 5 5 5 5 5 5 5 5 5 5 5 5 5 5 5 5 5 5 5 5 5 5 5 5 5 5 5 5 5 5 5 5 5 5 5 5 5 5 5 5 5 5 5 5 5 5 5 5 5 5 5 5 5 5 5 5 5 5 5 5 5 5 5 5 5 5 5 5 5 5 5 5 5 5 5 5 5 5 5 5 5 5 5 5 5 5 5 5 5 5 5 5 5 5 5 5 5 5 5 5 5 5 5 5 5 5 5 5 5 5 5 5 5 5 5 5 5 5 5 5 5 5 5 5 5 5 5 5 5 5 5 5 5 5 5 5 5 5 5 5 5 5 5 5 5 5 5 5 5 5 5 5 5 5 5 5 5 5 5 5 5 5 5 5 5 5 5 5 5 5 5 5 5 5 5 5 5 5 5 5 5 5 5 5 5 5 5 5 5 5 5 5 5 5 5 5 5 5 5 5 5 5 5 5 5 5 5 5 5 5 5 5 5 5 
CELL_DATA 429
SCALARS Coverage double 1
LOOKUP_TABLE default
1.7036676739074 2.6118451421124 3.0423830655949 3.3173422639836 2.4102869239891 2.7351321242605 2.8970137039058 2.7629837343306 2.6145335761633 3.2713682517607 2.8302764164348 3.1255693852844 3.1606166851482 2.6500316685221 2.8577711181573 3.2391201798099 2.472679062059 2.9053762141059 3.1668212520483 3.2981989543949 2.9955853271632 2.1807590297977 3.3762974911876 2.788212325768 3.2952168543492 3.5276341680303 2.6275792077609 1.2336868478115 3.2186318177749 3.3567235912311 2.9640113786087 3.5007021856668 3.1784137230965 3.1103543958876 2.8090181716648 3.1410190800675 2.8101762331978 3.152039762372 2.93413364239 3.1815882703178 2.5262138466442 2.4431637690965 2.9594142138322 3.1000804788174 2.4561702356454 3.1602507382225 3.1070393608547 3.555194045458 2.3954718917532 3.006429169772 2.8201710557033 3.1128453090836 3.206599773102 2.5706636972167 3.4051813879006 2.5964539836572 2.8235125690348 2.4340473689523 2.8011274934619 3.3294231314132 3.025334262298 2.9911059544745 3.3151911457772 3.1622215876788 2.9064886000683 2.8756795782018 2.1969984448655 3.070788759664 3.246303467452 3.2116255798754 3.4685394716652 3.1702438009006 2.8463989740322 2.9129579077934 2.6601827990567 2.8794092612791 3.1384812910602 3.2128788893875 2.9819824785101 3.5453338108609 2.740922363093 3.0090110530573 2.943057916757 3.4242932150892 3.3592746342652 3.3965003981995 3.2452482280142 3.5710384191195 3.2072986864114 2.7028201670944 2.9817528459322 2.6182839050092 3.1685440699531 2.6750691442808 3.1322724881066 3.4136963958642 2.9442843955961 3.512440901977 3.4656086857706 2.6164127545665 3.4639786840338 3.0129110476001 2.2821280662885 2.6214119871708 2.9135841419997 3.0497712192764 3.0447556131518 3.0304883712147 2.8050676753839 2.6055270590384 2.9271754891007 3.1386083588503 2.5086424629755 3.0028443142899 2.6174404745525 2.9818528477644 3.0930815254036 2.2999227523785 2.4310368339039 3.4954610784311 2.9106171219306 2.8751677633204 2.9036149712195 2.786280489015 2.3939981273073 2.7785072740749 3.019003265342 2.776969101767 2.6407390609851 2.7681058667861 2.9937878974552 3.0192088139824 2.8433258607789 2.5168525626717 3.3062962377421 3.1582049955453 2.4559867448456 2.3076975045038 2.5718413734751 2.2824639693845 2.8367458566164 3.0605128165469 2.7496433463549 3.0055854267188 2.6702105342513 2.871275851349 2.8030122816487 2.7914400815199 2.9985337675598 2.7905088041585 3.1368832571901 2.8375377728453 3.055608695379 2.8423240548912 2.9026999345728 2.7020654091904 2.7335487453161 3.1317416099256 3.1305260353442 2.9503115378936 3.1582728081475 2.813199132197 2.8021515631464 3.4660565968068 2.8903161766613 2.5816700814439 3.0829785268182 2.7064590946529 3.0700701720141 2.6308737413522 2.6333271721447 3.0438830235551 2.6226056719846 2.8524708748065 2.7230581758032 3.0376788021147 2.6565116143358 2.9272859018237 2.4006661226744 2.5868925699128 2.7647110092943 2.6245309932659 2.5062310941126 2.5920932331394 2.3782216901191 2.7060383595237 2.8209039836179 2.583039077107 2.0413997041454 2.4873621444999 2.5528868272947 2.3405684604934 2.617442892913 2.8434760950436 2.8089697142284 3.0442937749641 2.5387702694843 2.8493702648459 2.7866533273924 2.7397219756996 2.8975214292298 2.7231504419338 2.5276837948105 2.8119193318163 2.7659368403944 2.9464159895301 2.7595221866208 2.3728874751883 2.6931326440102 2.4260627865858 2.3245142028174 2.9241375430769 2.5513739365652 3.0424391144076 2.3876070946152 2.5040849981264 2.3053030209896 2.7123214734419 2.5781540772372 2.1499214731114 2.2981575141781 2.5106812894726 2.2585920431011 2.1114364267377 2.4252051694806 2.9455394015671 2.3794340608357 2.005277287517 2.9156222024389 2.3903414930318 2.7066627248675 2.3211564484554 2.3805475689988 2.6087859120381 2.502911455207 2.8189694245165 2.4867873674507 2.5738967080867 2.4840969560976 2.3912449847448 2.4012677633177 2.5835720040884 2.2598625440303 1.5813019850776 1.7612406378811 2.2716857577808 2.3896010180748 2.172938029175 2.6031943701951 1.9818583429459 2.5835303938125 2.6128231255321 2.0770297688879 2.5766013866818 2.2875079066087 2.7044069261149 2.5142344237488 2.6520577639624 2.3901702848505 2.3975007737222 2.2329716025904 2.5407264395558 2.187524146779 2.1831600160163 2.4120475248879 2.0624136054466 2.3421313480032 2.3634490231329 2.2989126415998 2.5000955933178 2.2189212546022 2.8215166837473 1.8336326775571 2.5333019339913 2.3438508366195 2.5686611955735 2.5056245168527 2.1695829540141 1.9597348014781 2.0820325338184 2.1025246504597 1.7031455389128 1.2718262857312 2.3348418781412 1.8909477165567 2.5440067585139 1.5226955425185 2.290276224453 1.9460681505367 1.9715320674383 2.4390274121595 1.5749209067141 2.3031016577476 1.8732680526581 2.5354979209621 1.9287731012139 1.0251889443263 2.1654527992194 2.0143054153497 1.7566600411573 1.7379631784069 2.1172119997058 2.4921408529622 1.2923058178598 1.5734332187095 1.9152550282395 1.9223018832486 1.2606434711822 2.0600624965821 2.1921836287552 2.0781554857185 1.5233318491095 2.264736349595 2.0393823772914 2.0851136187848 2.0397703011984 2.072706742892 1.9582205681094 2.3731369299273 1.9135750749077 1.4741110907058 1.6969973769766 1.740085069281 0.92825814007087 1.4673699427212 2.0196220634427 1.7573891557252 2.1467699392944 1.9601486420805 2.0104511783597 0.84416964874988 2.1520719360463 1.8420044803007 2.1395282462901 1.8453262620723 1.5276073143004 1.9776422291114 1.7573833520415 2.262818014506 1.7178106841525 2.354287853559 2.0464503079641 1.5707522994067 1.9711945433059 1.7438120875589 1.7969141463633 2.2143532152777 2.2532789375982 1.5691366713664 1.0631075942864 2.6374496122611 2.0784487602642 1.7631656430388 1.3479250271164 2.2090672025388 1.7752937367568 1.4312302572762 2.4525884763677 2.1664042302285 1.1109605038485 1.5506262737993 1.0574919698281 1.9706504702252 1.9966962294193 1.719024603093 2.1079759910716 1.309818416166 0.93352199881254 1.0825108245483 1.728682567288 1.6156649074865 1.6583656967322 0.90101406164598 1.6094894502925 1.3272644915728 0.9056860643582 1.112588928462 1.1962554030975 1.5292641921584 1.1318816959969 2.5522288012536 1.7249805416675 1.7478239211843 1.914829455701 1.105034037919 1.9110061268595 1.6561904779022 1.6709102913719 1.5099827468792 1.2164079207 0.99185483729445 0.79996320259274 1.5489311928302 1.5565089542148 1.747629088211 1.1695522578576 1.6050857392358 0.89728981397346 0.93544175183753 1.6618917224839 1.4199405686737 1.1703556705147 1.4761467725508 0.87998699805867 1.2403867970325 0.75091992387104 0.8474622341696 0.72907667241283 1.1595926625455 1.4719488632587 1.3430504635463 1.1497038519015 0.8046544344007 1.3614348031434 1.0185719285498 1.6042577194133 0.96578919049127 1.3077188789887 1.3743376027237 1.2811305723963 0.8446489892464 1.1089165021496 1.4401788926858 0.77024408093293 0.759041577211 0.83865375860677 0.99076783776386 0.95549149980365 0.8750336447871 
SCALARS Marker double 1
LOOKUP_TABLE default
0 1 2 3 4 5 6 7 8 9 10 11 12 13 14 15 16 17 18 19 20 21 22 23 24 25 26 27 28 29 30 31 32 33 34 35 36 37 38 39 40 41 42 43 44 45 46 47 48 49 50 51 52 53 54 55 56 57 58 59 60 61 62 63 64 65 66 67 68 69 70 71 72 73 74 75 76 77 78 79 80 81 82 83 84 85 86 87 88 89 90 91 92 93 94 95 96 97 98 99 100 101 102 103 104 105 106 107 108 109 110 111 112 113 114 115 116 117 118 119 120 121 122 123 124 125 126 127 128 129 130 131 132 133 134 135 136 137 138 139 140 141 142 143 144 145 146 147 148 149 150 151 152 153 154 155 156 157 158 159 160 161 162 163 164 165 166 167 168 169 170 171 172 173 174 175 176 177 178 179 180 181 182 183 184 185 186 187 188 189 190 191 192 193 194 195 196 197 198 199 200 201 202 203 204 205 206 207 208 209 210 211 212 213 214 215 216 217 218 219 220 221 222 223 224 225 226 227 228 229 230 231 232 233 234 235 236 237 238 239 240 241 242 243 244 245 246 247 248 249 250 251 252 253 254 255 256 257 258 259 260 261 262 263 264 265 266 267 268 269 270 271 272 273 274 275 276 277 278 279 280 281 282 283 284 285 286 287 288 289 290 291 292 293 294 295 296 297 298 299 300 301 302 303 304 305 306 307 308 309 310 311 312 313 314 315 316 317 318 319 320 321 322 323 324 325 326 327 328 329 330 331 332 333 334 335 336 337 338 339 340 341 342 343 344 345 346 347 348 349 350 351 352 353 354 355 356 357 358 359 360 361 362 363 364 365 366 367 368 369 370 371 372 373 374 375 376 377 378 379 380 381 382 383 384 385 386 387 388 389 390 391 392 393 394 395 396 397 398 399 400 401 402 403 404 405 406 407 408 409 410 411 412 413 414 415 416 417 418 419 420 421 422 423 424 425 426 427 428 
SCALARS Resistivity double 1
LOOKUP_TABLE default
42.543203696315 61.84284097427 73.161723818069 67.643645410774 49.476432546736 74.570050616619 44.429085280151 49.044477660105 81.641520600016 97.021277339172 45.095245261586 69.772847011813 24.327637932339 121.80423393201 113.87130914332 118.21025340018 60.739118118349 44.289529986385 105.61544132154 28.075445060704 29.685958098016 182.22011569462 72.538630787536 86.853185126958 184.99294428978 50.747727217933 43.578074091311 163.11050140146 24.047500320909 31.914228320184 34.695139303401 84.025642961911 64.677384495108 35.141890450671 55.679531515653 140.02047419934 67.867622975596 72.31155077504 88.179451282084 85.858380951255 101.17119614168 109.66497642484 56.847445863933 53.394730335525 53.21235687124 41.784445368233 66.080022298133 205.50562560605 35.011956493253 88.222988399871 119.86719803224 83.857215669229 43.244721685563 48.521579335159 40.113009946187 80.323917913126 46.758628782989 29.083703073587 40.789028404408 57.022492682068 89.974583725665 115.18808352301 57.686532722722 27.855573957324 69.846136227465 50.346340107746 23.073812517997 41.290099810172 53.772909599729 27.635110926831 149.95523068041 93.609610493512 62.509248713147 63.450653563314 41.912977719751 52.771284575209 64.550457712553 44.050458967262 66.171155133803 123.78060779714 50.595690988605 103.77664383456 70.113965884022 69.050132559817 85.171270063935 86.170878430677 67.221625551292 71.168195137497 97.609425316282 77.288610320283 38.569918138364 94.376041751509 102.22342074973 93.233664522853 36.180346140635 37.276832569064 78.205628666459 72.50104085907 37.755573332742 101.12260528269 208.2787941445 116.49496883338 127.99544485096 73.912660908816 81.8029378935 56.555122818298 86.000193870368 43.137953999324 53.438993977368 40.551103824436 170.2775686882 138.65437963884 58.962412914812 38.587200440207 40.580224792096 30.690558169632 60.275181655323 133.29236239381 53.797097422075 66.339744836904 181.76319700341 86.315372421261 80.237419387869 96.043001995259 69.279815841275 62.598825398295 223.67900574122 37.084848823714 84.139488666851 53.376483777174 63.489642958281 82.511130627671 56.587584046165 40.693333485659 62.646860730356 110.08026766582 63.642474511502 33.195517887559 84.615712890288 126.91513808194 68.256501258229 58.971381836297 37.362791055298 33.533416779677 44.249542085425 33.317508881258 30.726440098809 43.931366809145 46.023460107245 68.343625456627 57.583461736096 66.817717814023 80.902901777008 66.22183083802 54.951058995385 70.595233301519 104.58016921772 71.189411268772 126.58716800935 107.3854912407 73.177963597855 110.98750214252 58.416838388787 112.98163315885 78.703470548074 105.20620043867 73.194690305786 123.55454006976 163.30265858644 59.28602242041 55.118667697752 48.998937304748 98.592317550301 80.514807951672 66.419634215342 111.02969867231 61.841023460986 79.469953259495 78.087245297807 51.175716575101 49.017377064879 7.3914501129274 24.18672820233 36.925954082104 79.951258586212 53.300226541344 71.760540255281 24.763740105628 135.35413882316 94.175288759994 73.142922912447 83.032632779101 107.82756325704 82.1967568943 71.539742052665 43.972036537799 92.321713700858 74.619595892182 68.691968465394 134.82386302879 79.289268273426 47.373905495788 63.254104424808 100.59959725724 71.54371965949 73.689567111376 70.898073343952 23.138142217806 74.183927450445 57.229623372126 26.358317879701 86.2922255063 109.67050863592 93.054865420864 132.50135247999 103.87444032239 80.03086750981 68.539126329455 64.664825786544 25.446182823636 16.054891232791 106.3573869897 106.09956055805 139.10542692561 129.61457016986 129.623951619 106.24301823638 27.173907760639 76.282311989346 87.773854446386 84.996323529671 20.595480308437 43.908677912586 86.66893106513 88.044449772604 98.781425028187 90.480653686102 74.215932156583 94.213696502634 118.24034347538 112.52771250396 82.32139084441 93.707042649946 130.02292944604 109.62067458578 82.597842028512 78.454524314741 129.32160898146 30.092382979198 157.4617050903 72.698332656181 73.186482525426 24.672738159721 83.727633900886 97.031130537204 92.271043049119 94.925512706834 63.175694923903 94.324368818347 122.53391325216 160.79150429721 95.283038563934 98.986763614176 98.939678196595 95.814944674283 159.61262526677 98.656497087774 95.128977626584 96.332343801911 70.319826453337 153.84569534813 64.590465330648 227.41649241802 83.95991055891 102.5240787103 120.55916110518 117.05557818567 43.13074079066 181.15293355352 191.98163849337 184.11036792873 270.13001095488 173.54734916725 129.54601604646 182.30046562734 68.710104890863 80.935425819345 15.259189858536 127.31505420313 128.04158123182 129.43602610661 164.76903610761 123.19287397267 187.67276196098 104.45246329813 101.5487561589 357.84952067359 113.29526826368 152.32851598057 156.6029469213 43.088685340931 143.09504135002 60.285216329414 200.79651112523 224.7820023256 209.00419275631 111.94259009827 205.20279254418 105.09703050387 133.4773487521 109.53149369891 163.43056386253 95.029649039963 153.30900346281 109.83206224417 104.60328229417 18.46060935871 198.89951394965 80.101882546958 145.3818286412 187.29086984409 218.87145304717 118.69548276141 263.24413716249 192.19081573342 133.25894834606 149.63215118776 14.459892659769 24.47784833457 21.383267550929 733.41735833135 95.261179435771 31.028924341801 95.857267552819 117.45211047324 66.492009668139 20.968303814909 250.63181964869 118.37182928427 124.65399533089 76.576510498642 104.01763408424 142.02039068359 156.79964768776 178.16967006282 138.20135690533 111.48940853923 111.13236389632 155.89759674763 225.93791022218 68.649331150473 101.92004730021 134.30193386775 100.29031320946 144.44168566807 36.082861149857 95.819285322145 76.056243666915 126.23199668467 327.70430646459 480.20762725108 243.1257017852 180.82003996764 111.48705933269 145.2922556346 122.10174689107 185.46028684508 388.64195405247 240.83645849033 37.840658433268 51.312676831895 161.76095326234 274.08718288874 212.42690098363 227.19326948508 282.21621142999 242.35577328096 153.30164732163 245.92529808337 268.61810609855 87.357152562419 176.0077308676 235.7732537397 204.65985615996 250.75413237065 233.73057154314 323.64791658865 68.009700729056 412.51766204487 405.26361171728 301.04878501456 511.36154526599 204.30145685277 245.53770270515 225.85207690163 691.55622016609 391.12877157267 989.51930133521 449.11686021908 144.94156501704 243.36872857885 507.50119736955 157.23115088251 259.45886626343 254.08698957322 615.22821040703 659.87611656502 900.66135184546 370.76337663705 297.19359842343 215.45682019118 245.89299617357 284.48191708887 485.82165923366 399.47830307733 211.48051175183 271.75098016921 253.87910625815 234.46140458697 597.10594228343 988.28692106294 286.74394096496 205.39281042941 277.06842166981 274.99005071885 264.57859017541 822.9518254003 593.16293574634 507.90195716867 
SCALARS Resistivity_(log10) double 1
LOOKUP_TABLE default