# vtk DataFile Version 3.0
d-2__ created by libgimli-v1.5.0-1-g5991b6ac
ASCII
DATASET UNSTRUCTURED_GRID
POINTS 10201 double
0	-10	0
0.5	-10	0
0.5	-9.9	0
0	-9.9	0
1	-10	0
1	-9.9	0
1.5	-10	0
1.5	-9.9	0
2	-10	0
2	-9.9	0
2.5	-10	0
2.5	-9.9	0
3	-10	0
3	-9.9	0
3.5	-10	0
3.5	-9.9	0
4	-10	0
4	-9.9	0
4.5	-10	0
4.5	-9.9	0
5	-10	0
5	-9.9	0
5.5	-10	0
5.5	-9.9	0
6	-10	0
6	-9.9	0
6.5	-10	0
6.5	-9.9	0
7	-10	0
7	-9.9	0
7.5	-10	0
7.5	-9.9	0
8	-10	0
8	-9.9	0
8.5	-10	0
8.5	-9.9	0
9	-10	0
9	-9.9	0
9.5	-10	0
9.5	-9.9	0
10	-10	0
10	-9.9	0
10.5	-10	0
10.5	-9.9	0
11	-10	0
11	-9.9	0
11.5	-10	0
11.5	-9.9	0
12	-10	0
12	-9.9	0
12.5	-10	0
12.5	-9.9	0
13	-10	0
13	-9.9	0
13.5	-10	0
13.5	-9.9	0
14	-10	0
14	-9.9	0
14.5	-10	0
14.5	-9.9	0
15	-10	0
15	-9.9	0
15.5	-10	0
15.5	-9.9	0
16	-10	0
16	-9.9	0
16.5	-10	0
16.5	-9.9	0
17	-10	0
17	-9.9	0
17.5	-10	0
17.5	-9.9	0
18	-10	0
18	-9.9	0
18.5	-10	0
18.5	-9.9	0
19	-10	0
19	-9.9	0
19.5	-10	0
19.5	-9.9	0
20	-10	0
20	-9.9	0
20.5	-10	0
20.5	-9.9	0
21	-10	0
21	-9.9	0
21.5	-10	0
21.5	-9.9	0
22	-10	0
22	-9.9	0
22.5	-10	0
22.5	-9.9	0
23	-10	0
23	-9.9	0
23.5	-10	0
23.5	-9.9	0
24	-10	0
24	-9.9	0
24.5	-10	0
24.5	-9.9	0
25	-10	0
25	-9.9	0
25.5	-10	0
25.5	-9.9	0
26	-10	0
26	-9.9	0
26.5	-10	0
26.5	-9.9	0
27	-10	0
27	-9.9	0
27.5	-10	0
27.5	-9.9	0
28	-10	0
28	-9.9	0
28.5	-10	0
28.5	-9.9	0
29	-10	0
29	-9.9	0
29.5	-10	0
29.5	-9.9	0
30	-10	0
30	-9.9	0
30.5	-10	0
30.5	-9.9	0
31	-10	0
31	-9.9	0
31.5	-10	0
31.5	-9.9	0
32	-10	0
32	-9.9	0
32.5	-10	0
32.5	-9.9	0
33	-10	0
33	-9.9	0
33.5	-10	0
33.5	-9.9	0
34	-10	0
34	-9.9	0
34.5	-10	0
34.5	-9.9	0
35	-10	0
35	-9.9	0
35.5	-10	0
35.5	-9.9	0
36	-10	0
36	-9.9	0
36.5	-10	0
36.5	-9.9	0
37	-10	0
37	-9.9	0
37.5	-10	0
37.5	-9.9	0
38	-10	0
38	-9.9	0
38.5	-10	0
38.5	-9.9	0
39	-10	0
39	-9.9	0
39.5	-10	0
39.5	-9.9	0
40	-10	0
40	-9.9	0
40.5	-10	0
40.5	-9.9	0
41	-10	0
41	-9.9	0
41.5	-10	0
41.5	-9.9	0
42	-10	0
42	-9.9	0
42.5	-10	0
42.5	-9.9	0
43	-10	0
43	-9.9	0
43.5	-10	0
43.5	-9.9	0
44	-10	0
44	-9.9	0
44.5	-10	0
44.5	-9.9	0
45	-10	0
45	-9.9	0
45.5	-10	0
45.5	-9.9	0
46	-10	0
46	-9.9	0
46.5	-10	0
46.5	-9.9	0
47	-10	0
47	-9.9	0
47.5	-10	0
47.5	-9.9	0
48	-10	0
48	-9.9	0
48.5	-10	0
48.5	-9.9	0
49	-10	0
49	-9.9	0
49.5	-10	0
49.5	-9.9	0
50	-10	0
50	-9.9	0
0.5	-9.8	0
0	-9.8	0
1	-9.8	0
1.5	-9.8	0
2	-9.8	0
2.5	-9.8	0
3	-9.8	0
3.5	-9.8	0
4	-9.8	0
4.5	-9.8	0
5	-9.8	0
5.5	-9.8	0
6	-9.8	0
6.5	-9.8	0
7	-9.8	0
7.5	-9.8	0
8	-9.8	0
8.5	-9.8	0
9	-9.8	0
9.5	-9.8	0
10	-9.8	0
10.5	-9.8	0
11	-9.8	0
11.5	-9.8	0
12	-9.8	0
12.5	-9.8	0
13	-9.8	0
13.5	-9.8	0
14	-9.8	0
14.5	-9.8	0
15	-9.8	0
15.5	-9.8	0
16	-9.8	0
16.5	-9.8	0
17	-9.8	0
17.5	-9.8	0
18	-9.8	0
18.5	-9.8	0
19	-9.8	0
19.5	-9.8	0
20	-9.8	0
20.5	-9.8	0
21	-9.8	0
21.5	-9.8	0
22	-9.8	0
22.5	-9.8	0
23	-9.8	0
23.5	-9.8	0
24	-9.8	0
24.5	-9.8	0
25	-9.8	0
25.5	-9.8	0
26	-9.8	0
26.5	-9.8	0
27	-9.8	0
27.5	-9.8	0
28	-9.8	0
28.5	-9.8	0
29	-9.8	0
29.5	-9.8	0
30	-9.8	0
30.5	-9.8	0
31	-9.8	0
31.5	-9.8	0
32	-9.8	0
32.5	-9.8	0
33	-9.8	0
33.5	-9.8	0
34	-9.8	0
34.5	-9.8	0
35	-9.8	0
35.5	-9.8	0
36	-9.8	0
36.5	-9.8	0
37	-9.8	0
37.5	-9.8	0
38	-9.8	0
38.5	-9.8	0
39	-9.8	0
39.5	-9.8	0
40	-9.8	0
40.5	-9.8	0
41	-9.8	0
41.5	-9.8	0
42	-9.8	0
42.5	-9.8	0
43	-9.8	0
43.5	-9.8	0
44	-9.8	0
44.5	-9.8	0
45	-9.8	0
45.5	-9.8	0
46	-9.8	0
46.5	-9.8	0
47	-9.8	0
47.5	-9.8	0
48	-9.8	0
48.5	-9.8	0
49	-9.8	0
49.5	-9.8	0
50	-9.8	0
0.5	-9.7	0
0	-9.7	0
1	-9.7	0
1.5	-9.7	0
2	-9.7	0
2.5	-9.7	0
3	-9.7	0
3.5	-9.7	0
4	-9.7	0
4.5	-9.7	0
5	-9.7	0
5.5	-9.7	0
6	-9.7	0
6.5	-9.7	0
7	-9.7	0
7.5	-9.7	0
8	-9.7	0
8.5	-9.7	0
9	-9.7	0
9.5	-9.7	0
10	-9.7	0
10.5	-9.7	0
11	-9.7	0
11.5	-9.7	0
12	-9.7	0
12.5	-9.7	0
13	-9.7	0
13.5	-9.7	0
14	-9.7	0
14.5	-9.7	0
15	-9.7	0
15.5	-9.7	0
16	-9.7	0
16.5	-9.7	0
17	-9.7	0
17.5	-9.7	0
18	-9.7	0
18.5	-9.7	0
19	-9.7	0
19.5	-9.7	0
20	-9.7	0
20.5	-9.7	0
21	-9.7	0
21.5	-9.7	0
22	-9.7	0
22.5	-9.7	0
23	-9.7	0
23.5	-9.7	0
24	-9.7	0
24.5	-9.7	0
25	-9.7	0
25.5	-9.7	0
26	-9.7	0
26.5	-9.7	0
27	-9.7	0
27.5	-9.7	0
28	-9.7	0
28.5	-9.7	0
29	-9.7	0
29.5	-9.7	0
30	-9.7	0
30.5	-9.7	0
31	-9.7	0
31.5	-9.7	0
32	-9.7	0
32.5	-9.7	0
33	-9.7	0
33.5	-9.7	0
34	-9.7	0
34.5	-9.7	0
35	-9.7	0
35.5	-9.7	0
36	-9.7	0
36.5	-9.7	0
37	-9.7	0
37.5	-9.7	0
38	-9.7	0
38.5	-9.7	0
39	-9.7	0
39.5	-9.7	0
40	-9.7	0
40.5	-9.7	0
41	-9.7	0
41.5	-9.7	0
42	-9.7	0
42.5	-9.7	0
43	-9.7	0
43.5	-9.7	0
44	-9.7	0
44.5	-9.7	0
45	-9.7	0
45.5	-9.7	0
46	-9.7	0
46.5	-9.7	0
47	-9.7	0
47.5	-9.7	0
48	-9.7	0
48.5	-9.7	0
49	-9.7	0
49.5	-9.7	0
50	-9.7	0
0.5	-9.6	0
0	-9.6	0
1	-9.6	0
1.5	-9.6	0
2	-9.6	0
2.5	-9.6	0
3	-9.6	0
3.5	-9.6	0
4	-9.6	0
4.5	-9.6	0
5	-9.6	0
5.5	-9.6	0
6	-9.6	0
6.5	-9.6	0
7	-9.6	0
7.5	-9.6	0
8	-9.6	0
8.5	-9.6	0
9	-9.6	0
9.5	-9.6	0
10	-9.6	0
10.5	-9.6	0
11	-9.6	0
11.5	-9.6	0
12	-9.6	0
12.5	-9.6	0
13	-9.6	0
13.5	-9.6	0
14	-9.6	0
14.5	-9.6	0
15	-9.6	0
15.5	-9.6	0
16	-9.6	0
16.5	-9.6	0
17	-9.6	0
17.5	-9.6	0
18	-9.6	0
18.5	-9.6	0
19	-9.6	0
19.5	-9.6	0
20	-9.6	0
20.5	-9.6	0
21	-9.6	0
21.5	-9.6	0
22	-9.6	0
22.5	-9.6	0
23	-9.6	0
23.5	-9.6	0
24	-9.6	0
24.5	-9.6	0
25	-9.6	0
25.5	-9.6	0
26	-9.6	0
26.5	-9.6	0
27	-9.6	0
27.5	-9.6	0
28	-9.6	0
28.5	-9.6	0
29	-9.6	0
29.5	-9.6	0
30	-9.6	0
30.5	-9.6	0
31	-9.6	0
31.5	-9.6	0
32	-9.6	0
32.5	-9.6	0
33	-9.6	0
33.5	-9.6	0
34	-9.6	0
34.5	-9.6	0
35	-9.6	0
35.5	-9.6	0
36	-9.6	0
36.5	-9.6	0
37	-9.6	0
37.5	-9.6	0
38	-9.6	0
38.5	-9.6	0
39	-9.6	0
39.5	-9.6	0
40	-9.6	0
40.5	-9.6	0
41	-9.6	0
41.5	-9.6	0
42	-9.6	0
42.5	-9.6	0
43	-9.6	0
43.5	-9.6	0
44	-9.6	0
44.5	-9.6	0
45	-9.6	0
45.5	-9.6	0
46	-9.6	0
46.5	-9.6	0
47	-9.6	0
47.5	-9.6	0
48	-9.6	0
48.5	-9.6	0
49	-9.6	0
49.5	-9.6	0
50	-9.6	0
0.5	-9.5	0
0	-9.5	0
1	-9.5	0
1.5	-9.5	0
2	-9.5	0
2.5	-9.5	0
3	-9.5	0
3.5	-9.5	0
4	-9.5	0
4.5	-9.5	0
5	-9.5	0
5.5	-9.5	0
6	-9.5	0
6.5	-9.5	0
7	-9.5	0
7.5	-9.5	0
8	-9.5	0
8.5	-9.5	0
9	-9.5	0
9.5	-9.5	0
10	-9.5	0
10.5	-9.5	0
11	-9.5	0
11.5	-9.5	0
12	-9.5	0
12.5	-9.5	0
13	-9.5	0
13.5	-9.5	0
14	-9.5	0
14.5	-9.5	0
15	-9.5	0
15.5	-9.5	0
16	-9.5	0
16.5	-9.5	0
17	-9.5	0
17.5	-9.5	0
18	-9.5	0
18.5	-9.5	0
19	-9.5	0
19.5	-9.5	0
20	-9.5	0
20.5	-9.5	0
21	-9.5	0
21.5	-9.5	0
22	-9.5	0
22.5	-9.5	0
23	-9.5	0
23.5	-9.5	0
24	-9.5	0
24.5	-9.5	0
25	-9.5	0
25.5	-9.5	0
26	-9.5	0
26.5	-9.5	0
27	-9.5	0
27.5	-9.5	0
28	-9.5	0
28.5	-9.5	0
29	-9.5	0
29.5	-9.5	0
30	-9.5	0
30.5	-9.5	0
31	-9.5	0
31.5	-9.5	0
32	-9.5	0
32.5	-9.5	0
33	-9.5	0
33.5	-9.5	0
34	-9.5	0
34.5	-9.5	0
35	-9.5	0
35.5	-9.5	0
36	-9.5	0
36.5	-9.5	0
37	-9.5	0
37.5	-9.5	0
38	-9.5	0
38.5	-9.5	0
39	-9.5	0
39.5	-9.5	0
40	-9.5	0
40.5	-9.5	0
41	-9.5	0
41.5	-9.5	0
42	-9.5	0
42.5	-9.5	0
43	-9.5	0
43.5	-9.5	0
44	-9.5	0
44.5	-9.5	0
45	-9.5	0
45.5	-9.5	0
46	-9.5	0
46.5	-9.5	0
47	-9.5	0
47.5	-9.5	0
48	-9.5	0
48.5	-9.5	0
49	-9.5	0
49.5	-9.5	0
50	-9.5	0
0.5	-9.4	0
0	-9.4	0
1	-9.4	0
1.5	-9.4	0
2	-9.4	0
2.5	-9.4	0
3	-9.4	0
3.5	-9.4	0
4	-9.4	0
4.5	-9.4	0
5	-9.4	0
5.5	-9.4	0
6	-9.4	0
6.5	-9.4	0
7	-9.4	0
7.5	-9.4	0
8	-9.4	0
8.5	-9.4	0
9	-9.4	0
9.5	-9.4	0
10	-9.4	0
10.5	-9.4	0
11	-9.4	0
11.5	-9.4	0
12	-9.4	0
12.5	-9.4	0
13	-9.4	0
13.5	-9.4	0
14	-9.4	0
14.5	-9.4	0
15	-9.4	0
15.5	-9.4	0
16	-9.4	0
16.5	-9.4	0
17	-9.4	0
17.5	-9.4	0
18	-9.4	0
18.5	-9.4	0
19	-9.4	0
19.5	-9.4	0
20	-9.4	0
20.5	-9.4	0
21	-9.4	0
21.5	-9.4	0
22	-9.4	0
22.5	-9.4	0
23	-9.4	0
23.5	-9.4	0
24	-9.4	0
24.5	-9.4	0
25	-9.4	0
25.5	-9.4	0
26	-9.4	0
26.5	-9.4	0
27	-9.4	0
27.5	-9.4	0
28	-9.4	0
28.5	-9.4	0
29	-9.4	0
29.5	-9.4	0
30	-9.4	0
30.5	-9.4	0
31	-9.4	0
31.5	-9.4	0
32	-9.4	0
32.5	-9.4	0
33	-9.4	0
33.5	-9.4	0
34	-9.4	0
34.5	-9.4	0
35	-9.4	0
35.5	-9.4	0
36	-9.4	0
36.5	-9.4	0
37	-9.4	0
37.5	-9.4	0
38	-9.4	0
38.5	-9.4	0
39	-9.4	0
39.5	-9.4	0
40	-9.4	0
40.5	-9.4	0
41	-9.4	0
41.5	-9.4	0
42	-9.4	0
42.5	-9.4	0
43	-9.4	0
43.5	-9.4	0
44	-9.4	0
44.5	-9.4	0
45	-9.4	0
45.5	-9.4	0
46	-9.4	0
46.5	-9.4	0
47	-9.4	0
47.5	-9.4	0
48	-9.4	0
48.5	-9.4	0
49	-9.4	0
49.5	-9.4	0
50	-9.4	0
0.5	-9.3	0
0	-9.3	0
1	-9.3	0
1.5	-9.3	0
2	-9.3	0
2.5	-9.3	0
3	-9.3	0
3.5	-9.3	0
4	-9.3	0
4.5	-9.3	0
5	-9.3	0
5.5	-9.3	0
6	-9.3	0
6.5	-9.3	0
7	-9.3	0
7.5	-9.3	0
8	-9.3	0
8.5	-9.3	0
9	-9.3	0
9.5	-9.3	0
10	-9.3	0
10.5	-9.3	0
11	-9.3	0
11.5	-9.3	0
12	-9.3	0
12.5	-9.3	0
13	-9.3	0
13.5	-9.3	0
14	-9.3	0
14.5	-9.3	0
15	-9.3	0
15.5	-9.3	0
16	-9.3	0
16.5	-9.3	0
17	-9.3	0
17.5	-9.3	0
18	-9.3	0
18.5	-9.3	0
19	-9.3	0
19.5	-9.3	0
20	-9.3	0
20.5	-9.3	0
21	-9.3	0
21.5	-9.3	0
22	-9.3	0
22.5	-9.3	0
23	-9.3	0
23.5	-9.3	0
24	-9.3	0
24.5	-9.3	0
25	-9.3	0
25.5	-9.3	0
26	-9.3	0
26.5	-9.3	0
27	-9.3	0
27.5	-9.3	0
28	-9.3	0
28.5	-9.3	0
29	-9.3	0
29.5	-9.3	0
30	-9.3	0
30.5	-9.3	0
31	-9.3	0
31.5	-9.3	0
32	-9.3	0
32.5	-9.3	0
33	-9.3	0
33.5	-9.3	0
34	-9.3	0
34.5	-9.3	0
35	-9.3	0
35.5	-9.3	0
36	-9.3	0
36.5	-9.3	0
37	-9.3	0
37.5	-9.3	0
38	-9.3	0
38.5	-9.3	0
39	-9.3	0
39.5	-9.3	0
40	-9.3	0
40.5	-9.3	0
41	-9.3	0
41.5	-9.3	0
42	-9.3	0
42.5	-9.3	0
43	-9.3	0
43.5	-9.3	0
44	-9.3	0
44.5	-9.3	0
45	-9.3	0
45.5	-9.3	0
46	-9.3	0
46.5	-9.3	0
47	-9.3	0
47.5	-9.3	0
48	-9.3	0
48.5	-9.3	0
49	-9.3	0
49.5	-9.3	0
50	-9.3	0
0.5	-9.2	0
0	-9.2	0
1	-9.2	0
1.5	-9.2	0
2	-9.2	0
2.5	-9.2	0
3	-9.2	0
3.5	-9.2	0
4	-9.2	0
4.5	-9.2	0
5	-9.2	0
5.5	-9.2	0
6	-9.2	0
6.5	-9.2	0
7	-9.2	0
7.5	-9.2	0
8	-9.2	0
8.5	-9.2	0
9	-9.2	0
9.5	-9.2	0
10	-9.2	0
10.5	-9.2	0
11	-9.2	0
11.5	-9.2	0
12	-9.2	0
12.5	-9.2	0
13	-9.2	0
13.5	-9.2	0
14	-9.2	0
14.5	-9.2	0
15	-9.2	0
15.5	-9.2	0
16	-9.2	0
16.5	-9.2	0
17	-9.2	0
17.5	-9.2	0
18	-9.2	0
18.5	-9.2	0
19	-9.2	0
19.5	-9.2	0
20	-9.2	0
20.5	-9.2	0
21	-9.2	0
21.5	-9.2	0
22	-9.2	0
22.5	-9.2	0
23	-9.2	0
23.5	-9.2	0
24	-9.2	0
24.5	-9.2	0
25	-9.2	0
25.5	-9.2	0
26	-9.2	0
26.5	-9.2	0
27	-9.2	0
27.5	-9.2	0
28	-9.2	0
28.5	-9.2	0
29	-9.2	0
29.5	-9.2	0
30	-9.2	0
30.5	-9.2	0
31	-9.2	0
31.5	-9.2	0
32	-9.2	0
32.5	-9.2	0
33	-9.2	0
33.5	-9.2	0
34	-9.2	0
34.5	-9.2	0
35	-9.2	0
35.5	-9.2	0
36	-9.2	0
36.5	-9.2	0
37	-9.2	0
37.5	-9.2	0
38	-9.2	0
38.5	-9.2	0
39	-9.2	0
39.5	-9.2	0
40	-9.2	0
40.5	-9.2	0
41	-9.2	0
41.5	-9.2	0
42	-9.2	0
42.5	-9.2	0
43	-9.2	0
43.5	-9.2	0
44	-9.2	0
44.5	-9.2	0
45	-9.2	0
45.5	-9.2	0
46	-9.2	0
46.5	-9.2	0
47	-9.2	0
47.5	-9.2	0
48	-9.2	0
48.5	-9.2	0
49	-9.2	0
49.5	-9.2	0
50	-9.2	0
0.5	-9.1	0
0	-9.1	0
1	-9.1	0
1.5	-9.1	0
2	-9.1	0
2.5	-9.1	0
3	-9.1	0
3.5	-9.1	0
4	-9.1	0
4.5	-9.1	0
5	-9.1	0
5.5	-9.1	0
6	-9.1	0
6.5	-9.1	0
7	-9.1	0
7.5	-9.1	0
[...]
CELL_DATA 10000
SCALARS Coverage double 1
LOOKUP_TABLE default
-0.25194395954163 -0.22925427341381 -0.20814881013934 -0.1885498995451 -0.17037330910341 -0.1534339282318 -0.13759428509409 -0.12283588618764 -0.10912485791447 -0.096304274443181 -0.0844081801738 -0.073473389975739 -0.063455564956235 -0.054210595652509 -0.045680282266977 -0.037595103502845 -0.030269138893579 -0.023241351518396 -0.01693512422897 -0.010675291547421 -0.0050522900708841 0.00063476063085945 0.0057967894795453 0.010827125699241 0.015787759332626 0.020252771697287 0.02486446326531 0.028994121094368 0.03307780384579 0.036820668302824 0.040596602188086 0.044079506718881 0.04757980538992 0.051090344603071 0.054025693106581 0.057054161975393 0.060076923150379 0.062760616840254 0.065451037592222 0.068113370112536 0.070271480885462 0.072424235609699 0.074265942252128 0.075994757337621 0.077346627310273 0.078669613466467 0.079317940217641 0.079848088195178 0.079849022347055 0.079635505135397 0.079150866900689 0.078644855245969 0.07789129679886 0.077394087248732 0.076720550385174 0.076101421982834 0.075250003979864 0.074356500229584 0.073131000855834 0.071725527326015 0.07019094077922 0.06823513870038 0.066173858457987 0.063772242854288 0.060783211785441 0.057359892701029 0.053572251924522 0.049056256738784 0.044133990139844 0.038547294719049 0.032525498180879 0.025784424080822 0.018520970081082 0.010914536891551 0.0026800565072881 -0.0059716953981497 -0.015102657262459 -0.024405826905957 -0.034369137917294 -0.044404424881541 -0.055008272667605 -0.065851765638833 -0.077277477936016 -0.088914868866826 -0.10116541782752 -0.113790888464 -0.12668057377473 -0.14006270277995 -0.15389815725605 -0.16842700719805 -0.18357958275123 -0.19908376807897 -0.21500177197293 -0.23149825699749 -0.24877151036316 -0.26670619449451 -0.28525390384421 -0.30444915603126 -0.32468347483519 -0.346498813502 -0.2406996693254 -0.21782167899611 -0.19654830818507 -0.17679886876749 -0.15848171257974 -0.14140381953509 -0.1254296400959 -0.11055498453573 -0.096721863540461 -0.083785033824625 -0.071777331937747 -0.060730112798014 -0.050610877959858 -0.041272696978014 -0.032658326190394 -0.024544236764729 -0.01709684184628 -0.010070068763237 -0.0036259498364317 0.0026220380175855 0.0083706092764785 0.014030172020085 0.019291782240294 0.024365649519718 0.02931468093644 0.033900139155802 0.038461287714535 0.042671685963081 0.046759468042635 0.050533604964494 0.054266049329138 0.057821067815042 0.061346038998951 0.064784274953618 0.067808520557149 0.070820617578018 0.073807709781938 0.076557392883569 0.079257831641938 0.081857156133125 0.084092925757266 0.08622110847744 0.088068919510303 0.0897400624326 0.091160154540296 0.092412528564942 0.09313397737191 0.0936002481022 0.093662373411962 0.093440218114092 0.092971057228287 0.092437453473724 0.091757710422144 0.09121964651179 0.090624089893207 0.090028966852544 0.089243110956998 0.088339840508395 0.087207095567447 0.085849340242258 0.084308649829972 0.082436174283498 0.080428072954745 0.078019369904542 0.075103248155 0.071710128105759 0.06788885001539 0.063416125302716 0.058498220868137 0.052924915122274 0.046851545781037 0.040106755497905 0.032821947260719 0.025114588177329 0.016884174572506 0.0081808582677089 -0.00098643622934236 -0.010426485770892 -0.020369496021713 -0.030571873136163 -0.041183265799476 -0.052137334860892 -0.063636233349547 -0.07543615317644 -0.087739534686058 -0.10048159759234 -0.11355699006346 -0.12702329233179 -0.14099473755797 -0.15569835229968 -0.17099565494787 -0.1866881169537 -0.20277779735306 -0.21945708494355 -0.2369061760641 -0.25502843514579 -0.27376181133616 -0.29314587485718 -0.31356200314251 -0.3356123545754 -0.22955305996351 -0.20648856704225 -0.18504242020136 -0.16513473154562 -0.14666897346063 -0.1294408936956 -0.11332556014938 -0.098314447306707 -0.084340749058959 -0.071284763910298 -0.059152483472968 -0.047982709183658 -0.037751753661025 -0.028314166185625 -0.019610178989295 -0.011435227981614 -0.0038880297689873 0.0031739549119526 0.0097320286868629 0.016001760203251 0.021848803102409 0.027521568219648 0.032858367793061 0.037984694326088 0.042958226502222 0.047622729821302 0.052179498283902 0.056444944736822 0.060546706337171 0.064345908860708 0.068070206253232 0.071672757031752 0.07521872100035 0.078624499670458 0.081699893140874 0.084708523507657 0.087683026403883 0.090472584464997 0.093174918805531 0.095749378116378 0.0980291473623 0.1001467633398 0.10199338238432 0.10363252706363 0.10508220160443 0.10630356680343 0.10706549300402 0.10749997602712 0.10759874502066 0.10737586212741 0.1069237255669 0.10638129129699 0.10575797950541 0.1052013074502 0.10466312913435 0.10410019631181 0.10337167957117 0.10249030667446 0.10142600215139 0.10011940823828 0.098597432931598 0.096794724699414 0.094837245561578 0.092443197249796 0.089578052358811 0.086216794655851 0.082387774545218 0.077947097817088 0.073031333481465 0.067464300801908 0.061355038432661 0.054586031953594 0.047275091231273 0.039496563092369 0.031229829860785 0.022479629933934 0.013263690303503 0.0037131643092324 -0.0062598648673135 -0.016583193582777 -0.027249303358966 -0.03831241012627 -0.049888485026558 -0.061831539140742 -0.074232605511264 -0.087102756820987 -0.10034264011497 -0.11392472907068 -0.12804341200318 -0.14291924355799 -0.15839222321145 -0.17427350266549 -0.19055405382041 -0.20742431647504 -0.22506229789678 -0.24338325305632 -0.26230914176598 -0.2818864773838 -0.30249114161456 -0.32477926374118 -0.21849531342254 -0.19524113100124 -0.17361681285693 -0.15354347897086 -0.13492150147929 -0.11753357309443 -0.10126662892685 -0.08610314094864 -0.071980668743525 -0.058791214913315 -0.046527354498464 -0.035222505699001 -0.024870369488954 -0.015328128828744 -0.0065263753942252 0.0017267238783665 0.0093680422533613 0.01648481786045 0.023148719731143 0.029464958390723 0.03539823047347 0.04110556914097 0.046514912280778 0.051686601556938 0.056704293551891 0.061431633934715 0.06601095425706 0.070321959172819 0.074437432858675 0.078269141752843 0.081996521888404 0.085633578512529 0.089200271779369 0.092594220670063 0.09569977041874 0.098706439540093 0.10168804355985 0.10450184268069 0.10720619114875 0.10977058979535 0.11207880720178 0.11418680937638 0.11603576275683 0.11764887977217 0.11911498349085 0.12032320961694 0.12111018858103 0.12153094376963 0.12165431381268 0.12143198781219 0.12099473681827 0.120456131305 0.1198842007627 0.11932090459978 0.11883655337619 0.11831393134016 0.11763687522275 0.11679447273343 0.11578488624362 0.11453242227118 0.11304441279924 0.11130969037667 0.1093963943141 0.10703693528833 0.10421305918435 0.10087955474067 0.097058598093227 0.09264694255117 0.087729009710304 0.082168661030532 0.076025239710434 0.069226966860629 0.061885497536354 0.054052467772457 0.045727886641373 0.036932149586603 0.027656353345563 0.018005822714714 0.0079728483451578 -0.0024544033408844 -0.013199514427966 -0.024362975048754 -0.036027095600897 -0.048115298567438 -0.060637183667387 -0.073635386597612 -0.087041692162503 -0.10076408830523 -0.11503656650814 -0.13009690640887 -0.14575852374859 -0.16183541365832 -0.17831549736543 -0.19538908471212 -0.21323045696118 -0.23175865854568 -0.25088742605586 -0.27066103297111 -0.29145885067974 -0.31397629761211 -0.20751174226827 -0.18406548693557 -0.16225787441483 -0.14201193756345 -0.12322645179159 -0.10567034076154 -0.089239080504307 -0.073914680062328 -0.059633804038728 -0.046295881997237 -0.033889491220965 -0.022444225843056 -0.011962406727546 -0.0023090477302017 0.0065992107534388 0.014943251787422 0.022682725312686 0.0298648139192 0.036632086301423 0.04301128421501 0.049022744496109 0.054781503493759 0.060258074872623 0.065483740447518 0.070549605199534 0.075332647777674 0.079949543665136 0.084296920000372 0.088426194312483 0.092297244112407 0.096035629355071 0.099702360498016 0.10328232695256 0.10667997836876 0.10980221231465 0.11281355813792 0.11580787946628 0.11863699433666 0.12134473702154 0.12390969717188 0.1262347693476 0.12833369505293 0.13018380278201 0.13178167734679 0.13325497472866 0.13446213582728 0.13526076301985 0.13567588561279 0.13581929824748 0.13560824230238 0.13518155051557 0.13465602151094 0.13412519297046 0.13357179953958 0.13313032128195 0.13265570552057 0.13202477548216 0.13123319840239 0.1302815745529 0.12908622683757 0.12765160134171 0.12597039705629 0.12410327012778 0.12178881659312 0.11900406999983 0.11569714590836 0.11189438098793 0.10750489256261 0.10258245403603 0.097028522018518 0.090855799031951 0.084022523831742 0.076646154682252 0.06876300300539 0.060372984244993 0.051533929690587 0.042190998104891 0.032443043210548 0.02233285143997 0.011817123806519 0.00097461193838318 -0.010284361234042 -0.022058417276914 -0.034286938939066 -0.046942922302448 -0.060074218596596 -0.073650397464727 -0.08753626110953 -0.10197034024542 -0.11722119746728 -0.13308398979862 -0.14936735651405 -0.1660559985248 -0.18334016055479 -0.20140047460457 -0.22014500671704 -0.23948276840256 -0.25945863999577 -0.28045403926519 -0.30320600392364 -0.196604648595 -0.17294906079375 -0.15095231790004 -0.13052706356174 -0.11157100255859 -0.093838644008794 -0.077232435401946 -0.061738157293051 -0.047289345684661 -0.033785902453007 -0.021228938082952 -0.0096394643561197 0.00098101265773803 0.010752622120071 0.019774162460954 0.028221520951622 0.036060180309999 0.043325404956957 0.050189552051492 0.056639039545925 0.062733096855773 0.068546502230579 0.074092941411638 0.079372844148672 0.084491052512675 0.0893289823672 0.09398869815858 0.098370016324882 0.10251584935746 0.10642273210239 0.11018212341662 0.11387340336739 0.11747250929944 0.12087421909906 0.12401141136388 0.1270196257768 0.13004052568051 0.13288059927286 0.1355949638611 0.13815809809681 0.14049784806325 0.14258372169813 0.14444147963319 0.14602365174314 0.1475032396231 0.14871486442777 0.14951786204356 0.14993203166075 0.15009335567384 0.14989495833261 0.14948041915265 0.14897525540932 0.14847682440876 0.1479452985342 0.14754090142623 0.14711866837153 0.1465374070252 0.14580135450432 0.14490729754442 0.14378042357069 0.14239972968297 0.14078067118087 0.13896066203433 0.13669392940612 0.1339426159144 0.13066882195737 0.12688766509578 0.1225215917313 0.11759444461822 0.11204470508412 0.10583753767434 0.098969746610828 0.091551533366833 0.083624358614641 0.075175314247912 0.066286687043581 0.056865776356228 0.047026428566348 0.03683002067129 0.026226180317452 0.015281930449051 0.0039256709023798 -0.0079730382616907 -0.0203487123206 -0.033139301194772 -0.046415932327606 -0.060166536842684 -0.074230792160944 -0.088834530605007 -0.10428359389698 -0.12035667029251 -0.13685889039903 -0.15376560659962 -0.17127350386884 -0.18955756277594 -0.20852807859531 -0.22808325883397 -0.24826929469091 -0.26946349381843 -0.29243669202361 -0.18573658197791 -0.16187930265709 -0.13968861580202 -0.11907757715538 -0.099942652933004 -0.082027610174646 -0.065235080745832 -0.049562896187717 -0.034934901580716 -0.021258067726954 -0.0085354889987048 0.0031982439035281 0.013965257164781 0.023863857806532 0.03300477534602 0.041562381871457 0.049504672506515 0.056859077643445 0.063825836822836 0.070348990207127 0.076525331217603 0.082401195716339 0.088011066431399 0.093353754012212 0.09852290029555 0.10341935788349 0.10812654250682 0.11254546326264 0.11670720175039 0.12064241407558 0.12443016909275 0.12814443880784 0.13176690370026 0.13517385399987 0.13831935746801 0.14133277513306 0.14437332998121 0.14722548047683 0.14994688395292 0.1525093396427 0.15485775659894 0.15694321851527 0.15879724929278 0.16037034872416 0.16185137927487 0.16307131742091 0.16387209137578 0.16429992115624 0.16447465571742 0.16428663413389 0.16388786198435 0.16340353659192 0.16293173440478 0.16243220160024 0.16206375279809 0.1616957456316 0.16116223931137 0.16049212698206 0.15965879211878 0.15860097830069 0.1572837877051 0.15572248743641 0.15395411415443 0.15173660923509 0.14902188205174 0.14578592702476 0.14203533553273 0.13769254062781 0.13276014713655 0.12720367969302 0.12097099641735 0.11406272311291 0.10660693463313 0.098637432175585 0.09013073188351 0.081178526601675 0.071678453269534 0.061749775923053 0.051466392821487 0.0407712418372 0.029718051608816 0.018259771276443 0.00623984622979 -0.0062935601585072 -0.019225460059458 -0.032659445947026 -0.046586057738313 -0.060832272201911 -0.075620974772051 -0.091279908992486 -0.10757204729783 -0.12430459050364 -0.14144180153276 -0.15917828420012 -0.17769636412546 -0.19690297440691 -0.21668088519056 -0.23708370057706 -0.2584775480609 -0.28167555034377 -0.17491678621378 -0.15084725325857 -0.12845660219115 -0.1076534700109 -0.088328955127176 -0.070224019244211 -0.053240048481616 -0.03737921402991 -0.022565267975714 -0.0087047568781768 0.0041928622059231 0.016075593010422 0.02699719444076 0.037033365911451 0.046296782585184 0.054971387679572 0.063017766311624 0.070472247092427 0.07754097157694 0.084141850466657 0.090396448088528 0.096340763717612 0.10201783347056 0.10742673078669 0.11265431209436 0.1176085403423 0.1223656684548 0.12682162643865 0.13100209428258 0.13496709624063 0.13878454746692 0.14251437976758 0.14615772690331 0.14957615464782 0.1527239414835 0.15574712833819 0.15880249059256 0.16166758158176 0.16439601510252 0.16696141911871 0.16931133409295 0.17139840113751 0.17324720864621 0.17481200382331 0.17629433004792 0.17752087404906 0.17832104743165 0.17876874643935 0.17895150694244 0.17877889172787 0.17839715303319 0.17793563899899 0.17748900379526 0.17702611053401 0.1766899836018 0.17637649667666 0.17589714920585 0.17529856182212 0.1745238323038 0.17354845852126 0.17229342128723 0.17079518414218 0.16907312989336 0.16691043538837 0.16423345711415 0.16104706754807 0.15732291061215 0.15300200275683 0.14806126964283 0.1425037621988 0.1362397833371 0.12930284981 0.1218026680038 0.11378346383907 0.10522703856243 0.096205918922891 0.086629609223143 0.07661005916093 0.066235226654033 0.055446250042936 0.044281813262429 0.032715709309964 0.020564099075611 0.0078768724696691 -0.0052019750980919 -0.018797833153634 -0.032899058271177 -0.047335317857494 -0.062324044864362 -0.078201910123355 -0.09472408904218 -0.11169714725086 -0.12907561456263 -0.1470481389916 -0.16580885118261 -0.18526378552699 -0.20526890369084 -0.22589009552814 -0.24748332559122 -0.2709077358737 -0.16411440847413 -0.13984133939326 -0.11724539295851 -0.096244021932874 -0.076721364551764 -0.058417033239108 -0.041237291601227 -0.025178769971571 -0.010171092283898 0.0038830945157739 0.016964039443921 0.029003313890078 0.040085950499754 0.050264802328372 0.059656928679844 0.06845497923729 0.076608417533008 0.084169902266706 0.09133768000152 0.098022097845901 0.10435889486861 0.11037606079284 0.11611842866702 0.12160069614487 0.12688520860162 0.13190120642913 0.13670601011089 0.14119721776983 0.145400019478 0.14940718792478 0.15324841273744 0.15699032779686 0.16064942377186 0.16408230116817 0.16723982677951 0.17027441103987 0.17334200080127 0.17621921236268 0.17895448162191 0.18152050992237 0.1838746328422 0.18596075412134 0.18780314655485 0.18935565135628 0.19083848229813 0.19207257882145 0.1928815080761 0.19333989328148 0.1935292224972 0.19337396600446 0.19301007061436 0.19257086849793 0.19214906320069 0.1917309343566 0.19142985553217 0.19116956293275 0.19075340718909 0.19021713337015 0.18950979360174 0.18862353183003 0.18742749557514 0.18599918269729 0.18433096250241 0.18222266507437 0.17958495688314 0.17644548912931 0.17274876886851 0.16845155491202 0.16351279746615 0.15794563812618 0.15164744458985 0.1446940967583 0.13713839269841 0.1290765051709 0.12046400874876 0.1113744596449 0.10171980255514 0.091612467625613 0.081140672552358 0.070255987871441 0.058973473323002 0.047306321806467 0.035017308455576 0.022177410020334 0.0089404798750572 -0.0048202020789005 -0.019104908726092 -0.033735447327625 -0.048937101076162 -0.065039258685417 -0.081804533177916 -0.099022711276758 -0.11665559437521 -0.13486878357614 -0.15388881976969 -0.17359720414805 -0.19383796517852 -0.2146801964638 -0.23647362416059 -0.26011744573812 -0.15332836485527 -0.12885095800291 -0.10604382266338 -0.084838077492349 -0.065110778594824 -0.046596917687654 -0.029213695861733 -0.012951535838288 0.0022619522159659 0.016514933569894 0.029790274370551 0.041992549464863 0.053239054614931 0.063568680975436 0.073096201057257 0.082021973928481 0.090288601061068 0.097959838189301 0.10522298534883 0.11199661186371 0.11842102865493 0.12451378061462 0.13032093050608 0.1358812387415 0.14122218320392 0.14630044148712 0.1511521669052 0.15568459994618 0.15990874647826 0.16396149942615 0.16782169388376 0.17157716071454 0.17525014034061 0.17869827671188 0.18186793179151 0.18492004637593 0.18799407953332 0.19088269754682 0.19362023875307 0.19618649742789 0.19854340768438 0.20063624983529 0.20246972476974 0.20401187400624 0.20549348989793 0.20672657368337 0.20755077535375 0.20802287767266 0.2082169033931 0.20807682477215 0.20773809187307 0.20731799214186 0.20692663760981 0.2065487206349 0.2062793142002 0.206077135144 0.2057362341713 0.20525875404109 0.20462173986637 0.20382722694518 0.20269563321271 0.20133950434265 0.19973529327276 0.19767993568797 0.19508483830739 0.19198674273998 0.18831750333325 0.18404578571856 0.1791156091534 0.17353395957043 0.16720826778252 0.16022818364701 0.15261550682012 0.14451327839647 0.13585612658377 0.12668992688887 0.11695529428329 0.10675887235967 0.096181873620401 0.085203738534072 0.073805530325613 0.062029770686607 0.049603971868433 0.036608196701762 0.023203026886904 0.0092813621001761 -0.0051939966643794 -0.020025300637743 -0.035449774163252 -0.051786014997724 -0.068801766773192 -0.086276410303435 -0.1041663761492 -0.12262854400519 -0.14192550296844 -0.16189318671436 -0.18237608919183 -0.20344361502516 -0.22544022225537 -0.24930794801092 -0.14255307022475 -0.11786481119635 -0.094840836467453 -0.07342472086715 -0.053486466396849 -0.034754429191985 -0.017158117248412 -0.00068608314921581 0.014741273291952 0.029203072282336 0.042675651424659 0.055049395227148 0.06646200608506 0.07694931440804 0.086616427928505 0.095675563036146 0.10406226138502 0.11184284379684 0.11920283461094 0.12607082199347 0.13258243085916 0.13875227243568 0.14462482081219 0.15026955178758 0.15566329673968 0.16081043720934 0.16570473843022 0.1702791619163 0.1745245456556 0.17862645794031 0.18250300105261 0.18627430461132 0.1899606716561 0.1934222560321 0.19660807219383 0.19967710646386 0.20275133333719 0.20565192659745 0.20839144317013 0.21096174462726 0.21331765319774 0.21541685228345 0.21724189397024 0.21877572892985 0.22024798058356 0.22148486452899 0.22232421658472 0.22281288821048 0.22300998888402 0.22288717836393 0.22257198447042 0.22217404053932 0.22181305476739 0.22148155634917 0.22123826720177 0.22109943724572 0.22083855932479 0.22042013550775 0.21986074902568 0.21915447395805 0.21809309302441 0.21680596773872 0.21527495440673 0.21327491251718 0.21071953511758 0.20767026354035 0.20402744746599 0.1997797263068 0.19486640319661 0.18926745864602 0.18291883846462 0.17590163272213 0.16824227536316 0.16008738658356 0.15139574625799 0.14215155984463 0.13233608004644 0.12204218079625 0.11135773759478 0.10028520462201 0.088783004968348 0.076880360611787 0.064327846184806 0.05117212918256 0.037591155625566 0.023501932202563 0.0088343572390312 -0.0062084129470854 -0.021858031429994 -0.038433754330147 -0.055710167847145 -0.073452269874259 -0.091602583762546 -0.11032867724629 -0.12990664696914 -0.1501440497347 -0.17087788053244 -0.19217521007042 -0.21437513841035 -0.23844785150263 -0.13180277632623 -0.10687334743882 -0.083625726895322 -0.061993386220602 -0.041835165191903 -0.022881144102755 -0.0050626630266333 0.011629590998247 0.027276240271642 0.041952744647671 0.055629874834141 0.068181070678601 0.079764100791896 0.09041119697298 0.10022682130249 0.1094187783355 0.11792800968577 0.12582691964316 0.13328063059212 0.14024437643437 0.14684336057126 0.15309684308435 0.1590319110781 0.16475931631495 0.17020664710103 0.17542320882939 0.18036599851