# vtk DataFile Version 3.0
d-2__ created by libgimli-v1.5.0-1-g5991b6ac
ASCII
DATASET UNSTRUCTURED_GRID
POINTS 257 double
25.5	-0.25	0
25.643267391024	-0.375	0
25.690940791558	-0.19094079155751	0
28.625	-0.27380702240065	0
28.625	-0.13804348840204	0
28.518663902413	-0.18940103023301	0
28.458333333333	-0.087886572211468	0
28.416666666667	0	0
28.375	-0.13804348840204	0
28.291666666667	-0.087886572211468	0
28.333333333333	0	0
28.25	0	0
26.083333333333	0	0
26.041666666667	-0.13804348840203	0
26.125	-0.087886572211466	0
26.166666666667	0	0
26	0	0
26.708333333333	-0.13804348840203	0
26.666666666667	0	0
26.625	-0.087886572211466	0
26.208333333333	-0.07357428207177	0
26.75	0	0
26.791666666667	-0.087886572211464	0
26.333333333333	0	0
26.25	0	0
26.291666666667	-0.087886572211468	0
27.166666666667	0	0
27.208333333333	-0.07357428207177	0
27.25	0	0
26.416666666667	0	0
26.375	-0.13804348840204	0
26.458333333333	-0.087886572211468	0
27.291666666667	-0.087886572211468	0
27.333333333333	0	0
27.625	-0.13804348840204	0
27.518663902413	-0.18940103023301	0
27.625	-0.27380702240065	0
26.583333333333	0	0
28.916666666667	0	0
28.833333333333	0	0
28.875	-0.13804348840204	0
26.833333333333	0	0
26.875	-0.07357428207177	0
29.98747163413	-0.5056358037932	0
30.050519698408	-0.25547676721966	0
29.843533331918	-0.29816134131379	0
29.458333333333	-0.087886572211464	0
29.404607252882	-0.15094638411797	0
29.541666666667	-0.13804348840203	0
26.5	0	0
27.791666666667	-0.087886572211468	0
27.833333333333	0	0
27.75	0	0
27.231336097587	-0.18940103023302	0
27.125	-0.13804348840204	0
25.705488373266	-0.59091608366499	0
26.007921013115	-0.8717186506847	0
25.91135296792	-0.47048281487414	0
30.166666666667	0	0
30.208333333333	-0.087886572211464	0
30.25	0	0
27	0	0
26.916666666667	0	0
26.958333333333	-0.13804348840203	0
30.791666666667	-0.087886572211468	0
30.833333333333	0	0
30.75	0	0
27.041666666667	-0.087886572211464	0
27.083333333333	0	0
30.083333333333	0	0
30.125	-0.07357428207177	0
28.541666666667	-0.073574282071767	0
27.375	-0.13804348840204	0
27.416666666667	0	0
27.5	0	0
27.458333333333	-0.087886572211468	0
28.583333333333	0	0
28.666666666667	0	0
28.226291378505	-0.21877391554365	0
28.432011579996	-0.40775209656411	0
30.148002764253	-0.18940103023303	0
30.208717134119	-0.38392172835888	0
30.291666666667	-0.13804348840203	0
28.208333333333	-0.07357428207177	0
28.166666666667	0	0
28.125	-0.072182208352023	0
27.875	-0.13804348840204	0
26.237940586216	-0.15094638411797	0
27.916666666667	0	0
27.708333333333	-0.07357428207177	0
28.083333333333	0	0
28	0	0
28.041666666667	-0.13804348840203	0
26.190375288162	-0.21877391554366	0
27.958333333333	-0.087886572211464	0
26.541666666667	-0.073574282071767	0
26.571273919549	-0.15094638411796	0
26.317063962986	-0.25702488420529	0
27.541666666667	-0.073574282071767	0
28.5	0	0
29.583333333333	0	0
29.625	-0.087886572211466	0
28.791666666667	-0.087886572211468	0
26.203594889612	-0.40391444725954	0
27.583333333333	0	0
27.666666666667	0	0
28.75	0	0
28.958333333333	-0.087886572211464	0
29	0	0
29.041666666667	-0.13804348840203	0
28.708333333333	-0.07357428207177	0
29.083333333333	0	0
29.125	-0.087886572211466	0
29.166666666667	0	0
29.208333333333	-0.13804348840203	0
29.25	0	0
28.165334880767	-0.15260258505374	0
29.291666666667	-0.087886572211464	0
27.731336097587	-0.18940103023302	0
29.5	0	0
29.416666666667	0	0
29.333333333333	0	0
29.375	-0.07357428207177	0
29.666666666667	0	0
28.086941669094	-0.2859797646022	0
27.958333333333	-0.18219221742147	0
29.125	-0.18219221742148	0
29.228873378537	-0.27753669533404	0
29.708333333333	-0.07357428207177	0
29.041666666667	-0.23876614697008	0
28.958333333333	-0.18219221742147	0
29.833333333333	0	0
29.875	-0.13804348840204	0
29.916666666667	0	0
29.791666666667	-0.087886572211468	0
29.75	0	0
29.958333333333	-0.087886572211464	0
30	0	0
29.483730629652	-0.25702488420531	0
30.333333333333	0	0
30.375	-0.087886572211466	0
29.369620976373	-0.40603607246707	0
29.604159114629	-0.34842263547806	0
31.124752694808	-0.11296503030675	0
31	0	0
30.958333333333	-0.087886572211468	0
30.041666666667	-0.13804348840203	0
30.416666666667	0	0
30.458333333333	-0.07357428207177	0
30.875	-0.13804348840204	0
30.583333333333	0	0
30.541666666667	-0.13804348840203	0
30.625	-0.087886572211466	0
30.5	0	0
30.43533056908	-0.18940103023302	0
30.916666666667	0	0
30.385963434616	-0.36114994877356	0
30.708333333333	-0.07357428207177	0
30.666666666667	0	0
29.636111778917	-0.20065391017952	0
30.999752694808	-0.25100851870879	0
28.731336097587	-0.18940103023302	0
26.851997235747	-0.18940103023303	0
30.737940586216	-0.15094638411797	0
26.523708621495	-0.21877391554365	0
27.133853031742	-0.25547676721968	0
26.949480301592	-0.25547676721966	0
27.041666666667	-0.52911283384145	0
27.041666666667	-0.18219221742147	0
29.357041954828	-0.21877391554366	0
29.737940586216	-0.15094638411797	0
30.690375288162	-0.21877391554366	0
29.958333333333	-0.18219221742147	0
25.875	-0.11303967622539	0
25.75	0	0
26.650397296319	-0.25702488420526	0
27.292050467453	-0.38392172835888	0
27.414390113348	-0.63321254312708	0
27.469144028345	-0.36097200963104	0
27.848127708251	-0.28948918465343	0
28.848127708251	-0.28948918465343	0
28.726596951268	-0.4234584073117	0
29.731548923005	-0.26700761442393	0
30.817063962986	-0.25702488420529	0
26.031958747178	-0.33325463579056	0
26.523689393121	-0.44776195923934	0
29.184065504659	-0.43422319923747	0
29.545209981036	-0.61464357222601	0
30.552290248164	-0.29580321144285	0
31.25	0	0
26.800529041383	-0.37028063139366	0
29.130694908432	-0.28024272799092	0
28.907115884997	-0.43487734236883	0
31.5	-0.5	0
31.5	-0.25	0
31.356886217184	-0.375	0
31.308843572405	-0.19115642759521	0
31.5	0	0
27.681768476189	-0.55823447719905	0
29.041897355025	-0.3545575021244	0
28.950100433703	-0.28398118611486	0
29.746371622197	-0.43057135368151	0
29.045779100149	-0.5143168838031	0
27.615347366628	-0.83560735755964	0
27.971649595913	-0.56775148091581	0
28.235269600634	-0.41546210057925	0
28.346412380513	-0.73751448832674	0
28.007726950717	-0.98664640296265	0
26.322202955504	-0.72835150504623	0
29.798122080496	-0.68908130839227	0
30.703430397599	-0.40445925111313	0
30.914859484231	-0.44990795630246	0
29.247599241801	-0.70334449364573	0
31.053928463665	-0.58159990549132	0
31.221377875989	-0.67457110982012	0
31.225195424337	-0.49586438948828	0
30.530720924191	-0.4852517756918	0
30.323984230706	-0.57992151527177	0
25.84485407481	-1.2957460393421	0
25.743909551686	-0.8528010586154	0
30.746070739038	-0.72060716412098	0
29.604860290622	-0.8788438191921	0
29.043947453281	-1.1807973577914	0
29.54268225478	-1.3246684327942	0
29.849430697053	-0.99522786547226	0
30.043693421774	-0.75311160759413	0
28.849047319116	-0.69970565535729	0
31.000856094841	-0.87446921301307	0
31.5	-1	0
25.845623228308	-0.30002188546398	0
30.512369350266	-0.71824350459	0
30	-1.6666666666667	0
30.051778272566	-1.3024535658708	0
25.5	0	0
27.680522574649	-1.2514855461386	0
27.375	-1.6666666666667	0
27.75	-1.6666666666667	0
31.174325422113	-0.32450830281231	0
25.5	-0.5	0
26.747329141204	-0.71351083399284	0
25.5	-0.75	0
26.348572023727	-1.2023161679924	0
27.179597305363	-1.0673000334922	0
29.25	-1.6666666666667	0
25.5	-1	0
30.75	-1.6666666666667	0
31.013091550828	-1.3141602648437	0
30.625304590967	-1.106556793762	0
30.375	-1.6666666666667	0
30.189043391347	-0.96114657873573	0
28.064690440023	-1.391571216678	0
28.426745644615	-1.201505510398	0
25.5	-1.6666666666667	0
27	-1.6666666666667	0
26.25	-1.6666666666667	0
28.5	-1.6666666666667	0
31.5	-1.6666666666667	0
CELLS 429 1716
3	0	1	2	
3	3	4	5	
3	6	7	8	
3	9	10	11	
3	12	13	14	
3	14	15	12	
3	16	13	12	
3	17	18	19	
3	20	15	14	
3	7	10	8	
3	21	17	22	
3	23	24	25	
3	26	27	28	
3	29	30	31	
3	23	30	29	
3	28	32	33	
3	34	35	36	
3	19	18	37	
3	38	39	40	
3	22	41	21	
3	41	22	42	
3	43	44	45	
3	18	17	21	
3	46	47	48	
3	31	49	29	
3	50	51	52	
3	53	27	54	
3	55	56	57	
3	58	59	60	
3	61	62	63	
3	64	65	66	
3	67	68	61	
3	67	61	63	
3	69	70	58	
3	4	71	5	
3	72	73	33	
3	5	6	8	
3	74	73	75	
3	73	72	75	
3	76	4	77	
3	78	79	8	
3	80	81	82	
3	83	84	85	
3	50	86	51	
3	25	87	30	
3	86	88	51	
3	52	89	50	
3	90	91	92	
3	93	87	14	
3	94	92	91	
3	95	49	31	
3	9	8	10	
3	84	83	11	
3	19	95	96	
3	91	88	94	
3	25	30	23	
3	9	11	83	
3	97	30	87	
3	98	74	75	
3	99	71	76	
3	100	48	101	
3	33	32	72	
3	99	7	6	
3	41	42	62	
3	102	40	39	
3	71	99	6	
3	97	93	103	
3	104	34	105	
3	39	106	102	
3	74	98	104	
3	38	107	108	
3	107	109	108	
3	35	75	72	
3	106	110	102	
3	34	98	35	
3	28	27	32	
3	111	112	113	
3	109	111	108	
3	59	82	60	
3	113	114	115	
3	116	9	83	
3	114	117	115	
3	50	89	118	
3	119	120	46	
3	119	48	100	
3	110	106	77	
3	120	121	122	
3	89	52	105	
3	101	123	100	
3	124	92	125	
3	54	26	68	
3	114	126	127	
3	101	128	123	
3	129	109	130	
3	131	132	133	
3	134	131	135	
3	48	119	46	
3	115	117	121	
3	136	137	133	
3	47	138	48	
3	60	82	139	
3	82	140	139	
3	141	142	138	
3	143	144	145	
3	122	47	46	
3	146	137	136	
3	113	112	114	
3	134	132	131	
3	147	140	148	
3	149	65	64	
3	150	151	152	
3	150	153	151	
3	148	154	151	
3	147	148	153	
3	65	149	155	
3	59	58	70	
3	155	145	144	
3	82	81	156	
3	145	155	149	
3	146	69	137	
3	157	158	152	
3	154	140	82	
3	147	139	140	
3	101	48	159	
3	149	160	145	
3	102	110	161	
3	150	152	158	
3	42	22	162	
3	157	163	64	
3	5	71	6	
3	4	76	71	
3	85	84	90	
3	116	83	85	
3	96	31	164	
3	49	95	37	
3	15	20	24	
3	25	20	87	
3	14	13	93	
3	25	24	20	
3	165	166	167	
3	63	168	67	
3	54	68	67	
3	17	162	22	
3	63	62	42	
3	35	98	75	
3	34	104	98	
3	26	54	27	
3	63	42	162	
3	88	86	94	
3	125	94	86	
3	105	34	89	
3	118	89	34	
3	77	4	110	
3	161	110	4	
3	111	109	112	
3	126	112	109	
3	47	117	169	
3	120	122	46	
3	38	40	107	
3	130	107	40	
3	121	117	122	
3	117	114	169	
3	80	70	146	
3	123	128	135	
3	134	128	170	
3	159	48	138	
3	134	135	128	
3	163	152	171	
3	158	157	66	
3	154	148	140	
3	151	153	148	
3	69	146	70	
3	172	44	146	
3	9	78	8	
3	161	40	102	
3	90	92	85	
3	116	78	9	
3	92	94	125	
3	5	79	3	
3	164	31	30	
3	19	37	95	
3	173	16	174	
3	164	175	96	
3	17	19	96	
3	53	165	176	
3	53	32	27	
3	118	86	50	
3	175	17	96	
3	176	177	178	
3	118	36	179	
3	78	116	124	
3	180	3	181	
3	169	114	127	
3	114	112	126	
3	134	170	132	
3	133	132	136	
3	44	80	146	
3	146	136	172	
3	82	59	80	
3	152	151	171	
3	64	66	157	
3	80	59	70	
3	64	163	149	
3	170	101	159	
3	136	132	172	
3	85	92	116	
3	124	116	92	
3	97	164	30	
3	166	168	63	
3	14	87	20	
3	87	93	97	
3	117	47	122	
3	47	169	138	
3	101	170	128	
3	142	182	159	
3	132	45	172	
3	149	163	183	
3	31	96	95	
3	162	166	63	
3	184	93	13	
3	97	185	164	
3	156	154	82	
3	141	127	186	
3	142	141	187	
3	44	172	45	
3	152	163	157	
3	163	171	183	
3	103	93	184	
3	53	72	32	
3	154	188	151	
3	189	144	143	
3	185	175	164	
3	175	190	162	
3	118	179	86	
3	125	179	124	
3	109	107	130	
3	126	129	191	
3	161	180	40	
3	127	126	191	
3	169	141	138	
3	141	169	127	
3	125	86	179	
3	180	181	192	
3	193	194	195	
3	196	194	197	
3	149	183	160	
3	143	145	160	
3	167	176	165	
3	162	17	175	
3	198	178	177	
3	72	53	176	
3	118	34	36	
3	185	97	103	
3	126	109	129	
3	186	191	199	
3	180	130	40	
3	130	180	200	
3	161	4	3	
3	129	199	191	
3	138	142	159	
3	45	182	201	
3	130	200	129	
3	192	202	199	
3	202	186	199	
3	129	200	199	
3	142	187	201	
3	191	186	127	
3	180	192	200	
3	199	200	192	
3	180	161	3	
3	142	201	182	
3	54	67	168	
3	203	204	198	
3	79	5	8	
3	78	124	205	
3	182	170	159	
3	151	188	171	
3	185	190	175	
3	204	206	205	
3	201	43	45	
3	43	81	44	
3	207	206	204	
3	57	56	208	
3	44	81	80	
3	209	201	187	
3	35	72	178	
3	57	208	103	
3	13	16	173	
3	183	210	211	
3	141	212	187	
3	45	170	182	
3	213	214	215	
3	205	79	78	
3	216	156	217	
3	45	132	170	
3	196	197	189	
3	218	56	219	
3	178	198	36	
3	188	156	216	
3	220	211	210	
3	57	103	184	
3	204	179	198	
3	165	53	54	
3	221	222	223	
3	209	224	225	
3	43	217	81	
3	226	212	202	
3	214	227	228	
3	211	160	183	
3	210	171	188	
3	226	192	181	
3	193	215	214	
3	3	79	181	
3	205	206	79	
3	186	212	141	
3	212	186	202	
3	173	229	13	
3	167	177	176	
3	72	176	178	
3	206	226	181	
3	213	227	214	
3	217	230	216	
3	196	195	194	
3	231	232	223	
3	227	213	220	
3	206	181	79	
3	187	212	221	
3	173	174	2	
3	13	229	184	
3	174	233	2	
3	234	235	236	
3	196	189	143	
3	233	0	2	
3	160	237	143	
3	237	195	196	
3	1	0	238	
3	173	2	229	
3	177	203	198	
3	198	179	36	
3	239	190	185	
3	35	178	36	
3	192	226	202	
3	195	215	193	
3	188	216	210	
3	220	210	216	
3	213	237	211	
3	154	156	188	
3	124	179	204	
3	221	212	222	
3	240	219	55	
3	54	168	165	
3	196	143	237	
3	195	237	215	
3	55	1	238	
3	167	166	190	
3	2	1	229	
3	1	55	57	
3	190	166	162	
3	204	205	124	
3	241	208	56	
3	242	167	239	
3	223	222	243	
3	156	81	217	
3	160	211	237	
3	213	215	237	
3	183	171	210	
3	228	193	214	
3	219	244	218	
3	56	55	219	
3	184	229	57	
3	57	229	1	
3	220	213	211	
3	245	246	247	
3	230	220	216	
3	220	247	227	
3	248	247	232	
3	228	227	246	
3	55	238	240	
3	249	230	217	
3	247	249	232	
3	166	165	168	
3	221	209	187	
3	43	225	217	
3	209	43	201	
3	247	246	227	
3	190	239	167	
3	207	204	203	
3	208	185	103	
3	242	203	177	
3	207	250	251	
3	240	244	219	
3	252	218	244	
3	224	209	221	
3	217	225	249	
3	43	209	225	
3	241	242	239	
3	167	242	177	
3	253	242	241	
3	56	218	241	
3	212	226	222	
3	249	225	224	
3	234	250	207	
3	239	185	208	
3	231	223	243	
3	224	232	249	
3	252	254	218	
3	241	218	254	
3	253	241	254	
3	239	208	241	
3	206	207	251	
3	224	221	223	
3	223	232	224	
3	248	245	247	
3	234	207	203	
3	250	255	251	
3	251	226	206	
3	255	243	222	
3	249	247	230	
3	220	230	247	
3	203	242	234	
3	235	242	253	
3	255	222	251	
3	226	251	222	
3	232	231	248	
3	245	256	246	
3	228	246	256	
3	242	235	234	
3	234	236	250	
3	255	250	236	
CELL_TYPES 429
5 5 5 5 5 5 5 5 5 5 5 5 5 5 5 5 5 5 5 5 5 5 5 5 5 5 5 5 5 5 5 5 5 5 5 5 5 5 5 5 5 5 5 5 5 5 5 5 5 5 5 5 5 5 5 5 5 5 5 5 5 5 5 5 5 5 5 5 5 5 5 5 5 5 5 5 5 5 5 5 5 5 5 5 5 5 5 5 5 5 5 5 5 5 5 5 5 5 5 5 5 5 5 5 5 5 5 5 5 5 5 5 5 5 5 5 5 5 5 5 5 5 5 5 5 5 5 5 5 5 5 5 5 5 5 5 5 5 5 5 5 5 5 5 5 5 5 5 5 5 5 5 5 5 5 5 5 5 5 5 5 5 5 5 5 5 5 5 5 5 5 5 5 5 5 5 5 5 5 5 5 5 5 5 5 5 5 5 5 5 5 5 5 5 5 5 5 5 5 5 5 5 5 5 5 5 5 5 5 5 5 5 5 5 5 5 5 5 5 5 5 5 5 5 5 5 5 5 5 5 5 5 5 5 5 5 5 5 5 5 5 5 5 5 5 5 5 5 5 5 5 5 5 5 5 5 5 5 5 5 5 5 5 5 5 5 5 5 5 5 5 5 5 5 5 5 5 5 5 5 5 5 5 5 5 5 5 5 5 5 5 5 5 5 5 5 5 5 5 5 5 5 5 5 5 5 5 5 5 5 5 5 5 5 5 5 5 5 5 5 5 5 5 5 5 5 5 5 5 5 5 5 5 5 5 5 5 5 5 5 5 5 5 5 5 5 5 5 5 5 5 5 5 5 5 5 5 5 5 5 5 5 5 5 5 5 5 5 5 5 5 5 5 5 5 5 5 5 5 5 5 5 5 5 5 5 5 5 5 5 5 5 5 5 5 5 5 5 5 5 5 5 5 5 5 5 5 5 5 5 5 5 5 5 5 5 5 5 5 5 5 5 5 5 5 5 5 5 5 
CELL_DATA 429
SCALARS Coverage double 1
LOOKUP_TABLE default
1.7214452096487 2.5436984103421 2.9274771906085 3.3484026221267 2.5059094683982 2.448546204876 2.8837971006012 2.9744126460101 2.500370898169 3.2686131157248 2.9532974703719 3.1145664884 3.4121277319086 2.9135434830054 2.6893477366013 3.5010475477543 2.672202633735 3.1449615843436 3.0734991983244 3.4523052025408 3.1306972274119 1.6706215926969 3.3711969544068 2.9516831193467 3.4451524009753 3.4840337931695 2.7598065004639 1.2705726665095 3.4729491154423 3.3311089570071 2.240279267595 3.4759419293937 3.0243892318499 3.169265233346 2.7031199506455 2.9859541914859 2.7560186685086 3.1078544276235 2.7679357753511 3.2577081723187 2.5645583914335 2.4012411871055 3.0030724209726 3.1037753558291 2.5447213470992 3.2120330792712 2.956605807269 3.5677710818453 2.4121700551597 3.012768965456 3.1237228875761 3.1972350353313 3.2201705371978 2.7207628402306 3.3995673781669 2.8504090087559 2.8996589513692 2.4404227127726 2.8638268763196 3.0627337580878 2.8380816240242 3.1271957683487 3.0252471055455 3.2089983915266 2.9653347288089 2.9508303749227 2.1471158253025 3.1991502452539 3.428982151595 3.2341186072861 3.6584488039847 3.1801989274042 2.6112962842749 3.1119771289247 2.8908295528226 3.1871707161197 3.2075807206066 3.6275029981934 3.3270784913606 3.4722650820998 2.7642913957522 2.9486452609193 2.8743537606113 2.8748322427919 3.5017678246464 3.5438589294413 3.0523138940365 3.3924227422123 2.7583116119578 2.7378488792046 3.0571004530189 2.4590564168585 3.2020751768069 2.8472433452947 3.2310518854273 3.5432078940949 2.7994002821375 2.946640598258 3.1978935265294 2.7856225698456 3.3615052727979 3.2343356276796 2.2693452520056 1.6923846933326 3.0014435991415 3.0657458763162 2.9417708497257 3.1836261819642 3.2191672877853 2.3112571147805 2.8215916847259 3.5711305932459 2.7366318551035 3.3665004359923 2.5063834119359 3.2115976575308 1.4780220353077 2.2564325169951 2.0946833669234 3.2539224638997 2.6545248709367 2.9248807048207 3.4063399662682 2.6567302498562 1.9592876486296 2.9000623944637 2.8017242981326 2.8336254195356 2.1760981204242 2.7729523667917 2.866783107288 3.0620505273004 2.8387201247795 2.770991028618 3.3995394662457 2.5570599032964 2.343042157261 2.5572040473912 2.6012660456675 2.2475647108171 2.7738290564918 3.0169880486503 2.7410418233167 3.017044404547 2.6681036408644 3.0177046641851 2.9715634067251 2.7444866211617 3.0363489290482 2.7986835151289 3.0288451094843 2.8991658377695 3.3200525524028 3.0987119890631 3.2596159679442 3.0172568019209 3.1110092594338 2.9721969909188 3.1140996497488 2.8526756096221 3.0306359781825 2.9736717078197 2.8952528714736 3.6131807122468 3.2587156846133 2.4916502128677 3.482998662293 2.0986757224436 2.7003707316974 2.9198043738499 2.9011964784314 3.1101138100285 2.3335385670742 2.9718878009408 2.7842943305142 3.1188368941675 2.6644286271987 2.9374310890707 2.3432762624655 2.6165924568412 3.0402916628431 2.9447118167083 2.5675923941779 2.7313889086568 2.4490880003603 2.9521964245207 2.8538857067143 2.5439213955139 2.121904309272 2.5482387659384 2.5863850602333 2.3600095609323 2.6939237833184 2.675838673465 3.1706171948586 3.0750613881744 2.4101857977991 2.6633370874292 2.9405828021102 2.4105342072836 2.4525473166042 3.1266187766504 2.3633709005552 3.139112078172 2.7177756337826 3.0547658341447 2.8077813643924 2.50034055531 2.5466263965625 2.6758144810163 2.2969603272897 3.048701330949 2.8838361788638 3.1811776422413 2.597542931093 2.6974269462807 2.2192447450071 2.9343495815326 2.54206573874 2.2757813355164 2.2586999793251 2.4217065540974 2.3242326979474 1.7087077605582 2.3236825216 2.2218836303324 2.0993806031844 2.0367593326466 2.9054715158951 2.4589630416939 2.2304108050179 2.3561351729183 2.3616613015552 2.6612523897795 2.5511975414097 3.0437345319668 2.6438413446411 2.5830085146091 2.4998002005276 2.5576598164141 2.4465388307588 2.6483134049411 2.2536647432024 0.070941619292519 0.84745490051861 1.6869947374573 0.88754323944776 2.2204036612372 2.5424531017858 2.0523288288528 2.6794918748337 2.7042552678212 2.1118342282469 2.8363662204099 2.3577874329122 2.6145264203987 2.4815855846124 2.8633762263818 2.507972664034 2.3059174916074 2.3379055078831 2.6564326768725 2.1830138916494 2.2255653680866 2.4746453017752 1.6751789276123 2.344652501187 2.3085625728806 2.33121805915 2.5777919363451 2.1273964702539 2.7227213482955 1.9062697831265 2.4618543843413 2.369086913071 2.8800872981307 1.9798780550541 2.2279838247112 2.0005123251414 1.7417118569027 1.6565042540427 1.7903940309934 1.3471985902508 2.2081997824857 1.2433019064745 2.4729788486583 1.6583735201057 2.2160766700552 1.3788631031541 1.7258921980734 2.8535404187036 -0.20083062423792 2.2837595292654 1.2802600656012 2.9255831828863 1.2365323930084 0.98791912625238 2.238146118195 1.7675913237992 0.79955345789373 1.8167272317042 2.1492542301937 2.6212683691621 0.85403600737731 1.018523556991 1.4484911690089 1.8408257418314 -0.58809088440737 1.4824333397668 1.7647549158844 2.1037372411213 -0.39560590751677 2.2082042054724 2.0638410176221 2.0137370478444 1.9842997497664 2.0640687724398 2.0202752998369 2.4053151114693 1.9646312281112 -0.29832495779286 0.99344284561989 0.41973288610197 0.68589363424535 -0.16675302977162 2.0534379945968 1.2566968354137 2.3375207129355 1.9632329016001 2.0822575073741 0.99637311602407 1.4823802863624 1.8533475340847 0.74450842343123 0.37543272705305 1.5299679233482 2.0700289479641 1.8338530738301 2.3058813134189 1.962224656321 2.4673500166115 2.0530355482678 -0.1678519418637 1.3365688806902 0.99988162319059 0.37424403576313 2.0234835477707 2.2881522358046 1.1348653681096 1.0441836515496 2.5512469853409 0.76731515031156 0.020490353865968 1.359778497855 2.1961254735323 1.8303760180881 1.4516492911105 2.3591662513475 2.181306243393 1.1647576206069 1.6312329988839 0.8192032351476 1.7847309358576 0.88266816910256 0.12105326580376 1.8172780697239 -0.6197858101047 0.86923912973981 1.0782663923712 1.802595403663 1.6674068774759 0.31196370422409 -0.34062193043083 0.41524642958597 -0.23615824277268 0.24697020999875 -0.375962943317 1.1831687025093 0.54431937425452 0.22968987923362 2.4531336359511 1.0463754153135 1.0952309218756 1.221754731176 -0.46522345814655 1.9560501849679 1.7331122072754 1.798257261959 1.5771103106154 1.3903247311974 0.95205946128825 0.73340201466294 0.96382227213476 0.90684069626659 1.1272964103068 1.238873559696 1.6742802339927 0.95159346786513 0.9457642240775 1.5221306712757 0.73646205423554 1.3174355653392 1.7003212931034 0.69231741185983 0.72424129675673 0.69428832391077 0.82751380335417 0.78215242661684 1.3209271846729 1.6084816097722 0.90468766834791 0.69812129788028 -0.12053927726087 1.4719716690763 1.2303546693059 1.7132137542375 1.0265270363613 0.48227985809611 0.0016853065050129 1.3602201813466 0.91607567880792 1.1940341812915 1.4891381330942 0.34336991118114 -0.33984360391199 -0.54926692860908 1.0956888548928 1.1591916946833 1.121455481848 
SCALARS Marker double 1
LOOKUP_TABLE default
0 1 2 3 4 5 6 7 8 9 10 11 12 13 14 15 16 17 18 19 20 21 22 23 24 25 26 27 28 29 30 31 32 33 34 35 36 37 38 39 40 41 42 43 44 45 46 47 48 49 50 51 52 53 54 55 56 57 58 59 60 61 62 63 64 65 66 67 68 69 70 71 72 73 74 75 76 77 78 79 80 81 82 83 84 85 86 87 88 89 90 91 92 93 94 95 96 97 98 99 100 101 102 103 104 105 106 107 108 109 110 111 112 113 114 115 116 117 118 119 120 121 122 123 124 125 126 127 128 129 130 131 132 133 134 135 136 137 138 139 140 141 142 143 144 145 146 147 148 149 150 151 152 153 154 155 156 157 158 159 160 161 162 163 164 165 166 167 168 169 170 171 172 173 174 175 176 177 178 179 180 181 182 183 184 185 186 187 188 189 190 191 192 193 194 195 196 197 198 199 200 201 202 203 204 205 206 207 208 209 210 211 212 213 214 215 216 217 218 219 220 221 222 223 224 225 226 227 228 229 230 231 232 233 234 235 236 237 238 239 240 241 242 243 244 245 246 247 248 249 250 251 252 253 254 255 256 257 258 259 260 261 262 263 264 265 266 267 268 269 270 271 272 273 274 275 276 277 278 279 280 281 282 283 284 285 286 287 288 289 290 291 292 293 294 295 296 297 298 299 300 301 302 303 304 305 306 307 308 309 310 311 312 313 314 315 316 317 318 319 320 321 322 323 324 325 326 327 328 329 330 331 332 333 334 335 336 337 338 339 340 341 342 343 344 345 346 347 348 349 350 351 352 353 354 355 356 357 358 359 360 361 362 363 364 365 366 367 368 369 370 371 372 373 374 375 376 377 378 379 380 381 382 383 384 385 386 387 388 389 390 391 392 393 394 395 396 397 398 399 400 401 402 403 404 405 406 407 408 409 410 411 412 413 414 415 416 417 418 419 420 421 422 423 424 425 426 427 428 
SCALARS Resistivity double 1
LOOKUP_TABLE default
106.9329814407 89.831636091093 55.443005726744 89.876691413807 172.66932297908 199.85500792794 194.13529057182 50.163532725727 132.96147814822 112.45961263034 64.33180247529 9.1484279186589 32.437300010446 59.932422152374 25.328583916856 242.25172484754 76.179263090516 40.471316367584 47.151416642574 57.981502124886 56.425482233018 574.25656457726 50.55880356218 82.49292627601 141.9794327407 63.341052619287 76.766692896269 267.66993953063 86.550222644559 45.644894613613 6.4849221587512 48.097781871008 55.678789451971 47.132830021747 47.887987505323 85.60331931862 47.231100537835 33.751729523642 47.010269371977 114.3435107537 106.69980048275 150.18014582556 56.15885449269 64.729724535859 24.557068966818 54.023067571087 74.423108225398 221.57540412272 70.498498999251 87.086525887727 94.032090867223 109.24030327718 38.441579848651 66.634366767124 40.416831139515 14.234387753762 48.891122755598 32.381332031359 58.292692575604 23.414120646805 20.387560339483 142.30674405967 33.399918408942 49.3524718743 48.018152115846 22.299922457059 52.421818644437 141.30266630329 51.195483254068 109.29005954355 101.61991017277 101.13231102716 51.072878012072 90.564976700762 79.674975974276 113.83789540631 40.275029205115 86.20210784564 45.648256630614 4.8543828298822 54.894466582096 38.358223692193 72.095201602631 126.17139577436 5.061499846122 151.83071052634 241.85887472994 96.868145896673 67.511157786241 96.982674524946 32.791855854719 94.122690787318 195.65785590009 132.83981823106 30.944609005201 44.469117229961 40.403318863901 123.8088493605 13.612793471682 73.060367943428 20.186668374286 31.164427808755 149.68375060148 0.33070582112956 154.90773606597 17.233456348176 20.119947865775 46.863253120629 21.955592926535 13.903671920337 4.3553534796651 9.4616303311108 25.081442098571 11.069860023137 24.693350071483 54.61508623962 1.9690294972703 204.55852363683 7.5017665539246 27.667823326684 1.478979372466 51.947508368846 26.232631259149 41.113982260538 4.1445039414608 100.92730316902 2.1225907030913 69.708714358144 5.3271303252237 30.747718303309 47.546447641939 88.078177306862 60.497286616747 81.263894228884 38.853164102092 100.93275337622 39.328863998433 95.565425779084 35.247177209122 112.75079054256 66.721279702656 43.175847393259 77.25842652102 53.438809434635 58.564095014519 112.5822593136 38.388027259777 72.927331636413 51.052995172459 72.54801128171 101.23313019105 78.169528688104 163.86057430033 151.95607539326 79.114459758533 93.183985146751 120.25032124836 188.75241313209 67.631285484801 81.873684231271 198.31514245601 74.772963561774 47.8515407937 456.17624028175 172.65937823762 57.722510385456 231.52825493026 4.6406227956708 0.99795230611723 34.474483153289 12.778365517682 34.377446865663 92.4242612583 97.638501791246 72.20434761827 124.95171479479 74.876377967169 85.587379992657 104.61041683327 58.661082584721 43.718119102642 13.098808700009 89.284238788895 68.748539931008 93.580107225136 105.57368660885 72.479989359785 90.819362587159 106.39206467483 86.327174679047 96.461092936303 161.34891696387 93.259237253428 57.31123547482 118.38544253787 25.728454539881 100.0049338717 40.667729411847 60.232285562997 5.2123094379043 3.7903999110611 47.697783779399 10.996531452371 91.118323264216 48.889514747064 87.797740357365 93.641166702184 41.487799596954 85.358013874901 80.581874811544 47.011509063349 175.42769541225 100.25302643188 161.26786033539 141.16740380761 120.61224029255 8.7680063426285 86.580871660789 94.1921572464 64.078416026885 59.464629532062 101.86246292875 242.46079393801 374.50205951792 197.50843039814 3.2513769275919 6.8909869106006 60.72168319585 114.30053223439 27.422429845396 0.016076161468397 86.922873665689 116.71012848343 81.882322028294 109.59006455871 105.07779008435 170.38295995817 93.457467028319 156.77558519637 117.56375070582 131.47555578705 87.132508684335 170.77948975096 0.69480787205089 0.15527189128338 5.6464782141765 0.84391325206642 110.37136073674 97.772478437042 124.037946632 87.332499743177 77.356740440825 63.358773694713 137.25217576903 241.28941059124 93.681253740126 128.37187803924 140.19639908209 202.36309169756 92.571933197229 363.42646517654 147.9680780067 243.73110670485 288.99309761391 182.35915149794 550.84970094914 215.66785726293 159.75763354049 193.66337461467 139.18515792512 298.2481717711 61.246537866259 181.89830369587 74.200195016256 129.49952526247 128.53806352091 11.656977479509 117.49156878005 161.97083400722 765.88180899006 634.56960401747 181.61676373832 246.62124555935 228.49987012995 1284.6592320924 61.903767537587 129.69848553417 40.673799483577 7.1272887283396 654.25573008932 190.22918070673 4.0938657732491 133.76037365131 162.89765651911 144.90341058196 0.076217715383111 525.33172218458 100.65251423156 65.950698771119 11.473070578951 83.959292154984 146.72815385515 85.643896588115 1266.4575087191 1926.8365576 835.54634279778 362.4602306337 11.203226411408 4.2468572127423 13.150220732193 192.3329776686 3.2147393765107 149.18331971746 152.92504107229 431.55288141704 373.1794899853 45.427823414326 136.70881196385 75.193488181222 166.47905552618 8.5441196992823 169.66370418168 0.3605413132094 904.25935051144 13.860801971074 161.76103232826 1223.9931646434 33.116620926735 56.515969314047 56.785370476445 373.81574174981 0.054442695283608 84.458960473965 0.68096053846253 0.45350524616447 155.07772473854 50.518569595525 180.48898019482 107.2918409595 158.6276413905 76.229524151048 255.00437594411 1.3654188445007 28.022577161954 27.665167097859 3.426243747989 61.206140683729 139.95646055225 1088.6167786037 390.00661938988 79.597790702534 0.23807534800545 1.1520124921868 208.16905609511 135.56832087261 86.009470616826 187.19256396502 119.38476134969 150.84818913794 380.05171290269 273.26165036532 789.66404084318 337.89135744486 2.0617648418348 2.5140579799782 8.4273779467337 5.9924830583612 596.65949158624 387.86057272973 80.196684876595 110.52738587686 8.0447483478507 79.164108027303 76.575152989878 38.807164001035 473.68270474342 27.50236698748 293.85999814119 374.64454692729 583.12546178394 92.775575689304 1630.5567629692 1434.0700220551 1495.0005634801 44.575485444306 180.52767755508 207.77163779148 116.49990910056 247.73843059867 219.87312093319 494.40289063605 750.2876597178 1903.1794867241 1001.1823892304 1859.5537929338 435.85704013223 223.39961784351 683.09704498888 567.40060885232 505.00185210145 1405.097093772 254.16919373279 183.78473699978 854.51125129482 1099.203700068 824.99671886385 774.78004449543 836.38874653895 338.59926304298 183.51043291493 1625.6575127627 1249.6311927056 198.24825481855 266.08851177271 254.01425739439 189.60801809911 439.72102164852 264.87316073647 93.289526416434 335.5638117465 604.39522984893 302.03281359624 279.17900900974 705.18477306221 56.789108476 40.934132108378 459.80377489407 292.85153179248 264.87265949542 
SCALARS Resistivity_(log10) double 1
LOOKUP_TABLE default