# vtk DataFile Version 3.0
d-3__ created by libgimli-v1.5.0-1-g5991b6ac
ASCII
DATASET UNSTRUCTURED_GRID
POINTS 1483 double
3.3802423101098	12.435481574566	-0.57001420684378
3	12	-0.2857142857143
3.4959596309848	11.998298039034	0
3.2490070092203	12.168560129388	0
6.0395510135596	13.367156253372	-1.2757999763971
6.5930002103947	12.023472734859	-1.2922192071349
5.4998599382803	12.552571297657	-0.59337769664261
5.29662096318	11.932351047571	-1.5392209346082
5.6153020589615	9.1440579133635	-1.0774777831171
5.7237069713611	8.5589744845549	-0.30827017969781
5	9	-0.2857142857143
5.3151026533923	8.4249591108801	-0.38240156963578
2.3178923476779	4.1926464382665	0
2.5373292327812	4.4716333182052	-0.48281884804687
2.3342974478463	4.0018571812202	-0.30572640106363
1.9994701911036	4.4258543307655	0
4.8968211033092	12.507755029533	0
5	12	-0.2857142857143
5.2932790228536	12.494788035524	0
0	0	-0.2857142857143
0.54768630893449	0.55020446432687	-0.60775225926193
-0.16846798780902	-0.24002860812406	-0.65332445545953
-0.28063481777066	0.41453578455018	-0.44890469943706
7.7	3.575	0
7.3102059000399	3.7470939102263	0
7.7	3.6732286664853	-0.53772532608145
7.3176226410905	3.2857280588852	0
-0.7	-0.10798167686939	-0.47517111104905
-0.7	-0.57707899562378	-1.1376990549501
-0.7	-0.61986630133594	-0.43486724047509
6.3962361866998	10.611290418241	-1.3182185489848
6.565939673393	9.5694509864085	-0.57379796778735
7.1295911592009	10.496363016677	-0.48219980545192
6.3839624611364	10.341052129245	-0.35036617584397
7.7	14.3	-2.5
6.7623683783591	12.987112326146	-2.233077027779
7.7	13.059020885286	-3.3539705522597
7.7	13.327367479896	-2.129915020979
1	6	0
1	6	-0.2857142857143
0.93236760237426	6.49128333619	0
1.3454573625665	6.353105459937	0
2	5	-0.2857142857143
2.1684298754346	4.7403793023811	0
3.0226729813355	8.4836106439452	0
2.5164096947204	8.910651700233	-0.41109082170818
3.4071201441719	8.4167381876838	-0.59109415332551
2.5374808587914	8.1383747261781	-0.35604109466584
6.2778911301719	14.3	-0.61136458754231
6.2225356773765	13.691717475418	0
6.5208076177088	13.495118289851	-0.49928801204061
6.7358646795693	14.3	-0.39005656748015
5.7965188279432	13.281940723964	0
5.5320359851605	12.925291312368	0
5.353113789845	13.264183036004	0
5.5919457801018	13.101154188917	-0.33537516396337
7	10	-0.2857142857143
7	10	0
6.5010306427949	10.010760669106	0
6.8196744207924	9.5136576917357	0
7.7	1.1375	0
7.7	1.6430719769933	-0.42557297445049
7.1939383721229	1.4724531054162	0
7.7	1.625	0
6.3572581294301	1.4772201134971	-0.96507376287322
6.5574763981385	0.84898833643366	-0.48332647821142
6.7774291048203	1.7003141153393	-0.4123635555875
6.1433933962903	1.4220674799247	-0.28622251631329
-0.7	9.1984657118068	-1.9278839451739
0.33291529395702	8.3305676904572	-1.2970017952003
-0.7	8.1442617177323	-1.0898260028896
-0.7	7.644268062563	-2.0766032868031
4.508194357046	8.6258793740749	-0.60770874662543
5.0095189690676	8.5009469809039	0
4.7609249278557	8.7686419230913	0
6.2306672701993	2.67753718	0
6.6360398560532	2.4670661479797	-0.44686919005428
6.4910302172834	2.4939022421641	0
6.1550873755842	2.4572757142813	-0.33684154297057
1	1	0
1	1	-0.2857142857143
1.4901571161019	0.99574153349402	0
1.1736530561382	0.72346383359363	0
2	4	-0.2857142857143
2	4	0
1.6440539242474	4.1532454240512	0
7.7	6.9501255673919	-0.74418826283982
7	7	-0.2857142857143
6.7521552376889	6.497772044976	-0.66059363300197
7.7	6.3887218416049	-0.46884913673037
5.9482896260331	7.5800048202495	0
6	8	-0.2857142857143
6.3095291646476	7.6896230263426	0
6.1432247512519	7.3579252770212	-0.41388970597853
3.501272057481	12.437082442362	0
3.3297831413816	12.805427976196	0
3.6823393063421	12.851671876304	0
1.3671388209093	10.633374397873	-0.4152980605108
0.95248763025238	9.835503527633	-1.7808732395437
2.3518021577517	10.495200039554	-0.50930668321109
1.5373497846005	10.021005779616	-0.41781002197689
6.2054585007625	14.3	-1.3884356875417
6.9442913034148	14.3	-0.89278753613404
1	8	-0.2857142857143
0.54167473049383	7.7707286368021	-0.37916050195481
0.44975345341211	8.3808810318019	-0.31136669048163
1.022076618805	8.4121844676845	-0.45670843222423
0.89173681858685	4.6122796653579	0
1	5	-0.2857142857143
1.2386083631299	4.6841794176855	0
1.3923592539172	4.7130963353432	-0.25978315417498
6.4242299347383	5.6840176993625	-0.35514079575845
6	5	-0.2857142857143
6.3424541740313	5.2754910113697	0
6.0447933133998	5.5049876953384	0
5	2	0
5	2	-0.2857142857143
5.5190673049038	1.9208326821789	0
5.2306444928855	1.6547875838902	0
5	13	-0.2857142857143
5.257359886178	13.540476325965	-0.63012071696907
0	6	0
0	6	-0.2857142857143
0.066757795936057	6.5008369551487	0
0.29243888553297	6.1743316976873	0
7	9	-0.2857142857143
6.5033796411008	8.9981073418213	0
6.5607922823332	8.4440251373986	-0.63122800754088
6.811726958696	8.7028726276344	0
7	5	0
7	5	-0.2857142857143
6.4986646723997	4.9192017057136	0
6.7141996182955	5.3303468264748	0
7.7	9.5988491781319	-7.4736716195817
3.1507199964473	10.394874003632	-10
4.8663216648816	7.3792654266676	-10
5.1015502438684	11.553440122249	-6.405163284031
7	7	0
6.9589015254993	7.4884372736447	0
6.761634669635	7.2408783569561	0
6.0574437090791	0.20878539066113	-1.8779478182653
4.9838025543493	-1.3	-2.1179854334408
6.0308685444023	-1.3	-3.5425074203685
6.440522236286	-1.3	-2.0103523001383
3	2	0
3	2	-0.2857142857143
3.0105846506	1.4855923993349	0
2.6480485575569	1.6700894103009	0
5.0527203000088	13.535479310798	-1.5373151531841
5.0246691847863	14.3	-1.036131499603
4.1300067609037	14.3	-1.2024507502556
4.4744197407865	13.547407617085	-0.63586628370479
2.5813517996865	9.6286485974984	-1.0236151505326
2.2955236368793	9.5881134365907	-0.29154811067367
3	10	-0.2857142857143
6.4248505083522	12.522044346884	-0.42559946143008
6.465073985677	12.51782996062	0
6.1644652963082	12.36965297069	0
6.3832046574853	12.135664356038	0
2.9908655166747	12.498069465114	0
1.984703560175	7.5906357794687	-0.50777967523709
1.0508409188237	7.354634772545	-0.95680796450018
1.4515039911109	6.5829264157992	-0.56173008002516
1.3866216751759	7.5118935788728	-0.35488362790971
2.45	14.3	0
2.2168273415577	13.627179222019	0
2.4554693735383	13.497784276817	-0.39727655195048
3.032551925238	13.762466584345	0
6	11	-0.2857142857143
6	11	0
6.4843452951013	10.966514281357	0
6.2440599782187	11.234710090977	0
5.5	-0.5576923076923	0
5.247952850371	-0.29481663567353	0
5.5452342683804	-0.096294524539033	-0.49623355575102
5.1016398375367	-0.61489919294387	-0.38960315167385
2.3232496140345	4.0110297188843	-1.3835068702753
1.6586320571652	5.8268322896535	-1.5213554090482
0.71002746520551	3.976198472286	-1.505315421377
1.3296414347056	4.9089994064226	-0.82629172929831
5.6	14.3	0
4.6510156691765	14.3	-0.56274723813486
-0.090060726359069	5.5363033123106	-0.44581840212762
0	5	-0.2857142857143
-0.38456492153953	5.1805342841446	0
-0.7	5.0205501441189	-0.32507149572551
3	13	-0.2857142857143
5.1848675157348	3.2965660830064	0
5.4046165570399	2.9501485228537	-0.43988698776777
5.486289771732	3.4981838484395	0
5.4682750147717	3.0660382780841	0
0	8	0
0	8	-0.2857142857143
0.5178658825659	8.020802151125	0
0.25864598874121	7.6639427314904	0
6.7098208972434	7.2950601162224	-1.3269022195366
7.7	7.949747446039	-0.91833665053736
7.1577047253729	7.4844276204668	-0.64272934527953
4.5892004575887	3.5369189576522	-0.55981654583505
4.4420188491858	3.4660037233365	0
4.711527897636	3.7375259681419	0
4.3494632088922	3.8023533541114	0
4	6	-0.2857142857143
4	6	0
3.9913416390327	5.4988534517732	0
4.5093195747582	5.724109532591	0
1.4	14.3	0
1.5	13.55769230769	0
0.89284349994875	13.714781914708	0
1.2292962491126	13.670420041977	-0.37788942865261
4	9	-0.2857142857143
4	9	0
4.5502440226935	9.051086551406	0
4.2963154051231	9.3907765114078	0
4.5321110402369	7.5028925212181	-0.60552533206341
3.5085861108931	7.3893844432383	-0.64873189634878
4.0050480592533	7.4977657988521	0
4	8	-0.2857142857143
5.8961095330637	-1.3	-1.0125722125019
4.8982045728458	-1.3	-0.82217786726149
5.2296982103621	-0.31621891710017	-1.0679345669244
4.9010483556055	1.478997710586	0
4.5631533182214	1.9074133665015	-0.41231302454656
5.0320642355688	1.4518180616801	-0.36509190625555
3.5357179442866	0.46434418042464	-0.60031716899974
3.9407498163335	-0.4411178910574	-1.1087857494349
3.2826824657074	-0.47747544834602	-0.50866572047373
2.802260468126	-0.22902113419037	-1.4542342115515
1	13	0
1	13	-0.2857142857143
1.1191337005982	13.329221525091	0
1.4884720276527	13.02962190928	0
-0.21681247778723	8.5792000107362	0
-0.35118339610893	9.0917088673227	0
-0.7	9.0968147603684	-0.35256881313688
-0.7	8.9375	0
0.51662331659314	-0.40156299802931	-0.67799391089861
0.13474046208011	-1.3	-0.85683826964205
-0.16941603187845	-0.57512411281067	-1.4019543009948
6	13	-0.2857142857143
6	13	0
5.8068477026831	12.499749736815	0
6.1890713266052	12.67695534294	0
2.5984255358496	5.4578875982232	-0.67264342113488
2.2172109403706	5.4325217687574	0
2.4824672258873	4.9705265694472	0
2.6598112065826	5.3330483814808	0
-0.7	0.5146532048839	-0.51418317722913
-0.7	1.0492756199945	-0.88024243711367
-0.37698118088761	0.89350663208132	-0.33360419980628
-0.25096134668857	0.95145340086689	-0.90448711690516
6	2	-0.2857142857143
5.4002158317804	1.7678073061348	-0.50898482673054
5.8183999242367	2.5164331321023	-1.0840550371572
-0.13917028340788	5.5182991349521	0
0.31578338747353	5.7567158690792	0
6	12	0
6	12	-0.2857142857143
5.513035862904	11.994753403328	0
1.5285536174902	4.2362319729344	-0.43851980589517
0.57100063419133	12.499134596467	-0.56842257570583
1.2565986295401	13.42724014175	-1.149557674079
1.4486633887383	12.69302170761	-0.31714242590465
6.65	-1.3	0
6.903739311401	-1.3	-1.0953527719967
6.3980205255852	-0.38130956989248	-0.5855507841991
7.2175457166608	-0.5710098692386	-0.51938212652516
3	7	-0.2857142857143
3.5055774955602	6.7395375676091	-1.4094768265058
2.383927159844	7.4535505157878	-1.0620490471275
1	4	-0.2857142857143
1	4	0
1.2222221827385	4.2954008280594	0
0.82345085295407	4.2815033897546	0
5.6	-1.3	0
5.790373644402	-0.65252487431205	-0.38521635467031
[...]
CELL_DATA 5483
SCALARS Coverage double 1
LOOKUP_TABLE default
1.4966098175387 0.73446372957019 1.3909446287353 1.5591652522239 1.4347413876848 0.86328861274306 1.1249141786688 0.65012075973789 1.0978257650361 0.19819092876238 1.8261008333077 1.6459202957167 1.4825635719369 0.71026575868854 1.2400322604596 1.7792197728409 0.96386094061973 1.1301385070746 0.61194202939845 1.637413213502 1.4314117804132 1.6932372877104 1.8760893655151 1.0495200502892 1.5777994621648 1.3848331921733 1.2398051393492 0.57092204309314 1.2863962812626 1.6360858735752 1.5460254807796 1.7660612053691 1.1984946559254 1.7806772068466 1.4683759218298 1.7593911070973 -0.39456157250429 1.787804853927 0.23865177039819 1.7702038314002 0.60915349196349 1.3697474617699 1.3795874989161 1.4559070939523 1.2631928924318 0.88805296782293 1.8170069231904 1.0280013042021 0.93117325134624 0.55833817585795 0.67667490954312 1.2635519949936 1.3729796181966 1.5081351571545 1.7142437278905 0.93943176382142 1.4263796839797 1.8293617794221 0.85341089058845 1.8241057367144 1.5054154663188 0.60322070918342 1.4153242601994 1.5177974286757 0.70405391987721 1.5764776374893 1.1713244747061 0.6215365210992 1.6982815379276 1.5540551949864 0.81753667386193 1.0759054422163 1.7617888432377 1.6819269576202 1.5253816410783 1.0306971756951 0.61408432750824 1.2545459484138 1.9242052891796 0.62666473825924 1.1528010401097 0.78810585768123 1.4954470738544 1.2123041275272 1.4962346306738 0.97729164226341 0.59946242982202 1.8564270252956 1.7590120400171 1.5500946722594 1.1539367088137 1.191048225683 1.2566180901875 1.2132993658313 1.4540230930548 1.6114101055502 1.577925030553 0.96894419344234 1.6319226692768 1.651753621392 1.2918029293495 1.8010230826794 0.93988883593968 1.5909072053045 1.0727196419836 1.5296570977232 0.30258438852252 1.110547211635 1.7776511536659 1.8682417110513 1.5112827838186 1.2883088102142 1.4638979782533 1.3931362094305 1.1540894384799 0.73651940258498 0.9362329361512 1.0138865812879 1.554410016465 1.1935460286974 0.94613344455898 1.6041683221708 1.2351342852181 0.41600554356263 1.226439552774 1.7718981797133 1.0495623411339 1.7994110660172 1.3277427991304 1.5189251355927 1.4901541783714 -0.22894285337553 1.0553645064116 1.3937224576643 0.80612815657928 1.5783497626727 -0.42523276884267 1.3398088216606 1.3269674190572 1.8549446234179 0.54363167572862 0.14808335563069 1.7714580227889 1.6794595447062 1.4988931123992 1.4134592051045 0.88540129988668 0.65667490308812 0.89644912282108 0.58709328967916 0.3636912471569 1.8493941654912 0.80732303954337 1.210728173816 1.3770408756751 1.6356477963155 1.4654964810038 1.0494467014337 1.7260518081719 0.7756023094678 1.4297673153013 0.71080355957033 0.99199761607084 1.5702896709399 1.8569581872467 1.6353221142331 0.58988277160916 1.7919500698379 1.4203992306226 1.7996124406911 1.5811928633777 1.1702376143442 1.2480724852935 1.8243036264411 -0.099387886136023 1.8563500829403 1.903621610923 1.7589698549656 1.6905312453539 0.16193556371 1.5444012951413 0.39046618815163 1.1127592539069 -0.1004423845364 1.2199250063226 1.8453855890982 1.3982528493614 1.5583687087625 1.8197681446647 1.3253880604198 1.8449779885302 1.3167723524639 0.73175269319231 1.5866804181399 1.2616504986918 1.0633295042507 1.6378760392991 1.5302851595296 1.3935490150351 1.8571591980845 0.51539329028897 1.8923648560569 1.4025759931569 1.490960221047 1.9064307069248 1.6514943620436 1.7112966067325 1.4612547767036 1.0655958193455 -0.45824994718274 1.3762044935992 1.0702271888438 1.1708624797987 1.8826934815794 1.8464156048481 1.857905057771 1.8465304660437 1.5947889922018 0.85122228733715 0.84567933339601 1.3689095179298 1.7184090986972 0.5453141060452 1.8650843063821 0.71181098128102 1.6816541906364 1.5268644242127 0.85163734798825 1.9206323563488 1.1496217933463 0.91528079280032 0.8751033520977 -0.15755549309284 1.8546289778462 1.4482707167319 1.160612916137 0.5552228477285 1.7445045027246 1.5238729472338 1.5319619108897 1.7645463619158 0.69867875658123 1.5830801274903 0.95554063180663 1.5691898861236 1.8416186701826 1.3197680402626 1.5243484801611 0.50683478182816 1.6046627078277 0.68267046276757 1.6739470364039 0.45598864719737 0.20454760239041 0.0064264364565385 0.44550992762503 0.86991128635835 1.8563709166551 1.3051911457962 1.8682759897631 1.0341002143541 1.0452108574627 1.3953251414562 1.3429090773233 1.7443828540444 1.8271561985708 1.4484891630821 1.8548597253355 1.5255450076887 0.71772393823283 1.8546431112859 1.8842001851319 1.5524871244811 1.4152397453988 1.8364323350407 1.5455552079717 1.8512108121493 1.575623331112 1.5628624896722 1.7213118161293 1.6340561373858 1.9256172913 1.4253749897151 0.52389426464348 0.50130797168839 1.2640877718686 0.9529330524477 1.5832601989843 1.7397607666701 1.3042484116099 1.528521336456 1.844376418319 1.7199116576599 0.56061058317292 1.4000586376096 1.6878548716432 0.71801567658633 0.25706818811047 0.83276526608584 0.5005546431384 0.44494497483884 1.5585264299774 1.4008190814271 1.0291132597344 0.80807480570055 1.0967819110898 1.6072146562238 1.2993809175865 1.5278971333962 1.1119888444434 0.72869414985487 1.5750090272864 1.2592286812007 1.2511333086235 0.63071197918889 1.1518521264119 1.5162404121507 1.0752959798015 1.43672358432 1.145665020428 1.8130443191225 1.4868479980728 1.5252861497748 1.4051792490798 1.90401399444 1.2561159469604 1.6950783823687 1.5375327954299 0.45756163938531 -0.63894955685487 1.620694430043 1.1955654674504 0.72266776637888 1.5243467317403 1.4460723983389 1.7942665147315 1.8704956388348 0.9434276625979 -0.59037709196767 0.83935996003199 1.4101122122306 1.2177230294845 -0.25565874451346 1.0562987180217 1.0457609235802 1.4141250386736 0.89879884561222 1.5419091130558 1.3624039651719 1.2352070400355 1.5221879321618 1.7181768857764 1.781369372861 0.59480896089053 1.8744499500908 0.99371889099508 0.10278127014532 1.2966868838629 1.7435695331099 0.47920853700608 1.2995981334939 1.3629539856526 0.70845966241604 1.3728124502153 1.7411605451474 1.4683705807997 0.86701911636111 1.770814547567 1.6725771865294 1.1923152562339 1.3140772780319 0.96585983804 1.4613690246812 0.26421608225641 0.57252610804732 1.1386370051996 1.2895256247435 1.5177094075505 0.75916624216235 0.31882361624503 1.8258804497634 1.8820832163779 1.8950970663577 1.5900571009642 1.3379502764941 1.8547587140704 1.8057458006689 0.57246210961646 0.83156768448356 1.5206440069699 0.99021151709591 -0.23337246022065 1.5855114956456 1.3998356283646 1.3912178414125 1.5768992104677 1.5997056215965 1.4612003750904 1.3652714585603 1.524628742238 1.0380993157106 0.83092523074878 0.81931098454601 1.7524181664886 1.9173916055476 1.2296176483878 1.3396932017889 1.7183074439188 1.8446054326948 1.2728203770119 1.4189480013495 1.5057571602488 0.64590616863904 1.8137298461716 1.4042575348798 1.4382855873988 0.915880810074 1.5498382884932 1.8416571979065 -0.40353250213984 1.5463874580698 1.5149611815435 0.51824692889469 1.3852958577439 1.3503186706638 1.0343932539208 0.19149170259886 0.11193824007638 1.5775619061758 0.30252509478589 1.6822138634942 1.2562192399679 1.8148439564982 0.8718771047118 1.7405916816672 1.3968749112206 1.7301063779574 1.797693834901 1.4008572801455 1.1939267839389 1.422384003705 1.5630036852746 1.2656013913981 1.7264561132796 1.8248773892376 1.5582526938723 1.1331503094824 1.2697253778154 1.1971218015942 1.2352451233756 0.89782140128359 0.69083082356228 1.4483506068494 1.5173389893062 1.5695131404747 1.4542143276521 1.8791932892385 1.3960822439733 1.6858523298143 1.4899066449834 1.8798577727041 1.2353378524445 0.98231713955602 1.5878244869089 1.9105038376837 1.4769290367044 0.87151067435321 1.3394240524459 -0.25429888156725 1.8404843318326 0.44439096518358 1.7925560805704 1.4708385158752 0.22339066393606 1.5547837563211 1.3038037025753 1.0622063156712 1.4925311273004 1.7168294041518 1.8387152086577 1.4257596970091 1.3726754117842 1.8019837016323 1.6299941527253 1.3654883842196 0.7002496706207 1.581045276397 1.5441352498311 1.5203901750155 0.64913919399781 0.42928791551554 1.4420633801413 1.2217676260695 1.4916527076864 0.82556982311374 1.8475438614789 1.3952357413158 0.81075335780068 1.9170321141012 1.4221216067156 1.0445423443538 0.62375898715507 0.82298569503676 0.98071135160487 0.5142536525639 1.6954043608796 1.5886949505089 -0.033256171493406 1.3139985094354 1.152910271313 1.442516631139 1.3486256680197 1.5271315801813 1.5040699031552 1.7903990838679 1.0287344573613 1.5794117415902 0.740605988429 1.0685953695214 1.3783366019698 1.5826529302602 1.0900670629536 1.7760221478339 1.6068747390836 1.303190693007 1.582600119655 1.4249454784951 1.6643494065127 1.5585193654593 1.5985097384487 1.5606554398455 0.39925525487317 1.3039343323885 1.4216800661715 1.810996327371 0.76429252352891 1.7847201397621 0.74974562731648 0.8798541345356 1.3249058600504 1.7839477020899 0.855540809961 -0.71244778208471 1.2477651535714 1.5249760383224 1.2617165169122 1.6888592014886 1.4613594295994 0.64848840430117 0.80773610003621 1.8166213151082 0.92447694918816 1.5796991897223 0.83205533271468 0.58970419737483 1.3488730851532 0.56033367697951 1.5521253593141 1.5856884418536 1.5239541366341 0.010847870991597 1.1020887862271 1.6924051108745 1.1909650977281 1.5202681977465 1.4223627462989 1.383791882877 1.4395972965054 1.0566985927397 1.5866370166126 1.539678314633 1.0186248174636 1.0807208333386 0.23417419969388 1.8776990160295 0.91205248552197 0.32342433910869 1.7359119772104 1.3237671322437 1.6119952121069 1.6903896084584 1.6750196188972 0.63379997677693 0.84682576678897 1.5877002731716 1.3828040617352 1.657870616608 1.1366062236261 1.4757416790101 0.75117869304569 1.0504283112461 0.82051883532314 1.5046324780342 1.2321490892758 0.66454073928806 1.8563412815744 1.6408311507685 -0.57031483170138 0.11644183189399 0.88625148407555 1.6247200488935 1.5208853906005 1.5345666348131 1.8329677101403 1.0854361471597 1.4289605377126 0.59182281442882 1.6748798407666 0.34579435086218 1.6417702238872 1.0911706323947 1.572510872636 0.89548300583772 1.5868653496119 1.4996925479279 1.347650566686 1.4270292884281 0.3408455249813 1.8627023630423 1.1386849654562 1.4934740671083 0.43829908494068 1.4478053454186 1.5609087856358 0.94324798040997 1.3384311197205 0.86033680361587 1.6895619158306 1.0721911875376 1.4672311109858 1.3757634004757 1.2568404739856 1.8563946539239 0.67022043508562 0.3936913708198 -0.56644650799255 1.7723382669048 1.1135393060201 1.0495423575951 0.75079461838165 1.7992390175795 -0.21959192357236 1.6198648090868 1.563121338303 1.0798540929266 1.0294990797976 1.7719238598724 1.8589522964445 1.4655643304116 1.5164939721027 1.7870964612045 1.7020253360495 1.8419100736057 0.72793395496804 1.3309665325619 1.8441813412041 2.035964508953 0.66710831562017 1.4261164564091 1.3548909098356 1.4579974153868 1.5540752575959 1.5906314294374 0.6054578923221 1.7336775921158 0.66900657954035 1.1221978098519 1.4720309108802 1.9130346319252 1.1101199278423 1.4099059660116 0.093651858150685 1.6736162665717 1.6470661687133 1.1654900451379 0.2596289858672 1.3960523357199 0.69816394150355 1.658342530258 1.1572522463931 1.5146157379222 -0.38300178520094 1.377968829218 0.66384010646031 0.75489573644261 1.8532760643845 1.270125239322 1.2992614132394 1.5325822980305 0.44502035026513 1.866389909129 1.8508872300952 1.5115612510059 1.8225306212285 0.64483894976513 1.3459791614822 1.7067106022869 1.5158735035883 1.0287404477106 1.786011081396 0.49138726203241 1.2585455310881 1.3773571611275 1.1747906947278 0.78930468378009 1.771212070568 1.5457052054392 1.3244817621805 1.3524190929755 0.69209362302912 1.382936668938 -0.4365964993308 1.5703403071122 0.99971639596097 -0.31022576962704 0.24324315127432 1.532375099225 1.5520310341723 1.3363377360206 1.3687367151588 1.8531725739737 1.5236361958147 1.0602231226918 1.610170877621 0.91332021219298 1.1620349399119 1.4378087041273 0.96088540379978 0.33191757438374 1.2455707440249 1.4473754553667 1.8543801993421 0.74089827513905 1.646778209125 1.5247230063392 1.4420115387209 1.5593420425061 1.5815373519661 0.17789524165335 1.0055202675383 1.2904666910425 1.0169592064753 1.2297982676821 1.1181718016214 1.7634665929962 1.039494578652 1.2363655846216 1.4518628201367 1.7716218429981 1.7363065865858 1.733743419662 0.62262428549902 1.862942913309 1.4626920906808 0.73865442287115 1.18594158277 1.48367897742 1.386745173482 1.0933703194542 0.82764985853567 1.4428748993406 1.5278470635685 1.9140608167196 1.4198001906531 1.2937784241248 0.76665705493338 1.3991851833751 1.5516956834985 1.569380039885 1.8106996459938 1.400819750324 1.4840957033583 1.0761050097846 1.5356470540063 1.5862082601753 0.81871560227879 1.8865685457326 1.3870280164894 0.55240475989828 1.5923133773107 0.86901134487718 1.5103613886841 1.205912085651 1.7192306131051 1.1980022682145 1.2002023436978 1.5627724974216 1.1295189760694 1.6376955800877 1.847238883434 1.3151079706792 1.6287235954867 1.4428704337899 0.4671239960767 0.97913848856296 1.7770754984232 1.7031196207341 0.093197323257974 1.5881838513088 -0.57995403591951 1.3813299888256 1.7156085461368 1.289930905383 0.60181602715886 1.765366275469 -0.72810800715273 1.7192264228479 1.3170447948913 1.4294611910288 0.72104331713882 1.1645610114808 1.378523318511 1.0310358595389 1.4526496885893 1.0636405419997 1.5383191813196 0.76126382202333 1.4096261450418 1.5051557019035 1.206371568802 1.3218399882535 1.5747462774262 1.5519981286618 1.4541140557934 1.0773650580951 0.6134630522788 0.74691301811551 0.60665208724421 1.5252176624618 1.5614579715073 1.5744080034671 1.0636276798758 1.6733723567774 1.4804068203399 1.0879262992222 1.5783783552906 1.4403881477161 1.5832358368348 0.4963783079999 0.95980500251056 1.5918820815043 1.2634147856523 0.91710711484045 1.2867620439636 1.3426854001707 1.0484770562356 1.2725708746798 1.5200141527911 1.4917228302945 1.1914617317425 1.8580461419203 1.8207488654242 1.0698986963624 1.2816899746574 0.70942602556224 1.3346759581719 0.66086415540468 1.6350985463891 -0.22428463411834 0.65555897078411 1.531258900039 -0.30158569068682 1.6494292488143 0.67972281664226 1.2826461761735 1.3032367113165 1.4155595939746 0.81326688400398 1.3962553350807 0.43690681067818 1.2405950693424 1.5676222983009 1.2658203314917 1.5294152194181 1.4669887436738 0.93583971113793 0.787924513273 0.3862866665244 0.77456642654018 0.50830941162916 1.8219440992108 0.43530136385499 0.91871514037849 1.5170285816181 1.2849212270927 1.5298098656824 1.5332142153922 1.4543668281949 1.5717343897742 1.2227433394072 1.3788300911004 1.5085843413789 1.5281257246299 1.6859095036402 0.54013942298671 1.5611383114049 1.5541702545298 1.156760403419 1.13714301932 1.6415001593097 1.8830250462729 1.5975275255024 1.7151886450333 0.65265004843208 1.2315305222038 1.8097349976587 1.4454000526723 1.2845892717754 1.6593979627008 1.0029970941082 1.3670375225112 0.38971092292329 1.7401322608045 1.2332085714218 0.66617131554762 1.4567828792339 1.5055514635755 1.4082432191643 -0.17883626280173 1.2776264997738 1.572385703369 1.8595726119457 0.31422318872677 1.7677000316122 0.7989202310536 0.20174543404844 1.1542745017011 -0.50116683809712 1.6907876034394 1.8943237083246 1.4118184404658 0.99576964664314 1.4863813796533 1.7485228200949 0.36774961465245 1.5745612871986 1.4794883855625 0.20722680287172 1.4299514991879 1.3399362292127 1.6320829986522 0.94428097828147 0.51447148115824 1.4222635086952 0.59990121315489 1.2592076699806 1.8590377718362 1.3510488691852 1.4953971557618 1.2840243435298 1.5975391017644 0.33120315326809 0.37531307766418 0.96407805721087 1.9957863791783 1.111113266002 0.60581729361262 1.5322188403208 1.566734064025 1.0452512406829 1.3592128005862 1.2301450185126 1.3160046392328 1.5551629113626 1.4792971508 0.72961025963567 1.292025239493 1.3312580010514 1.5940479167995 1.8695614070528 0.5865558357143 0.84099034515141 0.46627206296738 1.503469010568 1.3183585071646 0.77888167107563 0.97967989116283 1.7887856033111 0.48314009434097 1.1835288105044 1.0510183652628 1.2810271779122 1.728982733189 1.2341144391276 1.1500475569678 1.7874447412381 1.8707829175401 1.51433243006 1.7279391907596 1.5846656458918 1.2227953143011 0.78409418826479 0.7384521921965 1.485775049408 1.0574813482856 1.1742342438209 1.4805182066315 0.7329147827925 1.6213880165495 -0.1609957155027 1.8036439688931 1.5944649281124 1.3546396025924 0.50965993601053 0.57003289285999 1.7410957982009 -0.042543582760286 1.1382775648098 1.2375986570573 0.58999788286184 1.1386194895398 1.8193053867037 1.8169405058309 1.4782097952139 0.66023601852786 1.6925098290047 1.7467673323371 0.29848967340688 0.89366203439947 1.6267031755616 1.0010422673902 1.5499562322492 1.5323158929451 0.91315702900284 1.3746904360675 1.2112771263956 0.72714636397459 0.63358159728215 0.60316040680801 1.7772196835597 1.8298158787825 2.4738309436111 1.5411564730534 0.86658933023991 1.3144625409709 1.4854163083562 0.91742002902796 1.4869817396637 1.7010671474733 0.48959633936029 1.7417205910739 0.85647369821386 1.7300441149771 1.4687861594018 0.73867061878041 1.1892213591244 1.497772678062 1.3955191872736 1.2320699471353 0.87549000947815 1.6243486869136 1.8026110929638 0.84512485855754 1.6833513054837 1.7335302898095 0.42324264765693 1.9718795706952 1.4078160715445 1.1723163002431 1.0966611481667 1.0997742974676 1.5550639445275 1.4663579141838 1.7017768322538 0.87026767813961 1.7926936243243 1.2625801385211 1.4061167952735 1.3286113515556 1.0261427433044 0.63872290596 1.8817820281074 1.8111977776237 1.4320866729137 1.9062092704642 1.0459918781229 1.0257222629285 1.4992942223379 1.4866125514407 1.3427826245307 1.3467049826382 1.4906146489894 1.0434093128052 1.7812381092996 1.8490653670605 1.4021101069395 1.0495328851729 0.78883257649813 1.4147010906195 1.2598078559452 0.30503653667126 1.5572680438824 1.7103797221494 1.2768506183326 1.8619051832288 1.3465005376983 1.0499746631627 1.8614008705406 1.486026146497 0.56759063085275 0.71570579194923 1.2829129960598 1.8415647995321 1.1705917714695 1.0196798118969 1.4398875595681 1.3058054173766 1.7143984966422 1.5452795612005 1.2081112929703 1.2969233109829 1.7148433929432 0.86480567543142 1.5981888558218 1.609736435043 1.8731162036795 1.4595845733499 1.2700666772388 1.7594825267969 1.7335122649526 1.8057617416389 1.5144748220414 1.4516372872181 1.4537967414372 1.5944436627295 1.4554748271794 0.91829077675991 0.021869080900701 0.87282680509454 0.77288012772152 0.74842374691736 1.576345212904 1.2279252481835 1.7605238185043 1.2335060625198 1.5167353256042 1.2515328792481 0.59156041866442 1.7627215058872 1.534294199172 1.6326108285569 -0.40808913401225 1.8341789925933 1.6000933072335 1.0197785426082 1.8109702365342 1.1790267302607 0.90103640712335 1.5355683653108 1.2860003658459 0.58084577427356 1.4547482054303 1.1899934478976 1.0822223447777 1.7645902504822 0.93463191731909 1.5775707779413 1.3060056570122 1.324863215842 0.97216601690554 1.7756671529091 0.19692541512731 0.67690644697063 -0.52680406428466 1.3684207017819 1.4101161189428 0.7820751732212 1.0404165128124 1.5802201463607 1.6556103400764 1.3832057236113 1.6076584075134 0.87795989965912 0.85047933256292 1.8103501124538 1.7432982510591 1.4844318548041 1.5586042092473 1.4410479608788 1.4072050576476 0.58312653999475 1.3708893002003 1.6569041729717 -0.16603426793692 1.2376998203637 1.8652495274924 1.4307913789818 1.3929791501246 1.2414499416799 0.85665679194087 0.43474118626598 1.5427847614845 0.72768902763781 1.3753583213577 1.3781076339347 1.5272659531603 1.5876498229989 1.7841651541508 1.8195128548286 0.29017652844201 1.4546305719175 1.0898295291754 0.42284122806608 1.8045498128659 -0.5199874838862 0.53825644301007 1.2529338469197 1.7332328513714 0.86126526097068 1.4810173480067 0.53874698837597 1.4245929452087 1.0124202357474 1.3080566465469 0.95600333703809 1.0150203011328 1.8706481507148 1.4254575649808 0.72959126527769 -0.1228484857494 1.0367912630868 1.307441220593 1.531262653799 1.510053261637 0.94374254165429 1.8312665843344 1.3169644680094 1.4916634047664 1.4458013712412 0.71784987693264 1.5437467530816 1.4994858926232 1.91