# vtk DataFile Version 3.0
d-2__ created by libgimli-v1.5.0-1-g5991b6ac
ASCII
DATASET UNSTRUCTURED_GRID
POINTS 803 double
8.3333333333333	0	0
8.5	-0.29429712828708	0
8.6666666666667	0	0
21.166666666667	-0.35154628884587	0
21.333333333333	0	0
21	0	0
-0.13949540192174	-0.65832226163824	0
0.26765699968102	-1.1941152153012	0
0.50098922076846	-0.451860121227	0
11.833333333333	-0.28867513459481	0
11.666666666667	-0.84084908820295	0
12	-0.57735026571174	0
-1	0	0
-0.82347194173878	-1.6006755924119	0
21.666666666667	0	0
21.5	-0.55217395360815	0
1.1666666666667	-0.35154628884586	0
1.3333333333333	0	0
1	0	0
1.5	-0.55217395360814	0
23.61842901153	-0.60378553647188	0
24.166666666667	-0.55217395360814	0
23.833333333333	-0.35154628884586	0
1.6666666666667	0	0
8.1666666666667	-0.35154628884586	0
1.8333333333333	-0.35154628884586	0
2	0	0
4.8333333333333	-0.35154628884586	0
5.1666666666667	-0.55217395360814	0
5	0	0
2.6666666666667	0	0
2.3333333333333	0	0
2.5	-0.35154628884586	0
2.1666666666667	-0.29429712828708	0
8.4079889429861	-0.75760412093209	0
9.0144333430414	-1.1439190584088	0
8.8333333333333	-0.55217395360814	0
13	0	0
13.166666666667	-0.29429712828707	0
13.333333333333	0	0
3.1666666666667	-0.35154628884586	0
3.5	-0.55217395360814	0
3.3333333333333	0	0
16	0	0
16.166666666667	-0.29429712828708	0
16.333333333333	0	0
3.6666666666667	0	0
3.8333333333333	-0.29429712828707	0
4	0	0
4.3333333333333	0	0
4.1666666666667	-0.35154628884586	0
27	0	0
26.833333333333	-0.35154628884586	0
27.166666666667	-0.55217395360814	0
3	0	0
16.5	-0.35154628884586	0
16.666666666667	0	0
2.8333333333333	-0.55217395360814	0
13.5	-0.35154628884586	0
13.666666666667	0	0
4.5	-0.55217395360814	0
4.6666666666667	0	0
3.9253443903472	-0.75760412093208	0
29.833333333333	-0.29429712828707	0
30.166666666667	-0.35154628884587	0
30	0	0
35.905165514021	-0.87509566217462	0
36.166666666667	-0.35154628884586	0
35.661339523067	-0.61041034021497	0
5.5	-0.29429712828708	0
5.8333333333333	-0.35154628884586	0
5.6666666666667	0	0
5.3333333333333	0	0
27.333333333333	0	0
27.5	-0.35154628884586	0
35.833333333333	-0.29429712828708	0
6.1666666666667	-0.55217395360814	0
6.3333333333333	0	0
6	0	0
37	0	0
37.166666666667	-0.35154628884586	0
37.333333333333	0	0
10.741322276319	-0.75760412093209	0
11.175685896383	-1.113902458684	0
11.166666666667	-0.55217395360814	0
6.5	-0.35154628884586	0
30.795730030397	-1.0103532830333	0
31.229185900173	-0.87228466782526	0
31.000045632922	-0.57199295442671	0
31.666666666667	0	0
31.833333333333	-0.55217395360814	0
32	0	0
40	0	0
40.166666666667	-0.35154628884586	0
40.333333333333	0	0
6.8333333333333	-0.29429712828708	0
7.1666666666667	-0.28872883340808	0
7	0	0
7.2211097499487	-1.0538354750778	0
7.0053271435993	-0.61041034021496	0
6.7615011526461	-0.87509566217461	0
9.5	-0.29429712828707	0
9.3333333333333	0	0
9.1666666666667	-0.28872883340808	0
7.3333333333333	0	0
39.666666666667	0	0
39.833333333333	-0.29429712828708	0
13.674580112811	-1.7184248716052	0
14.353791495618	-2.0265268011931	0
13.958469529133	-1.3940906823913	0
7.6666666666667	0	0
7.8333333333333	-0.55217395360814	0
8	0	0
12.994672856401	-0.61041034021496	0
5.5920110570139	-0.75760412093209	0
5.8348685364776	-1.5356869134354	0
9.8333333333333	-0.35154628884586	0
9.5718321806872	-0.87509566217461	0
10.166666666667	-0.55217395360814	0
7.33337923226	-0.57364431858631	0
10.36828810089	-1.6552861219901	0
6.6666666666667	0	0
36.666666666667	0	0
36.833333333333	-0.29429712828708	0
37.5	-0.55217395360814	0
24.333333333333	0	0
24	0	0
12.503171480364	-0.86507900392268	0
12.328351644367	-1.416191408927	0
12.778890250051	-1.0538354750778	0
11.5	-0.28867513459481	0
19.666666666667	0	0
19.833333333333	-0.35154628884586	0
20	0	0
9.6666666666667	0	0
20.5	-0.28872883340808	0
20.666666666667	0	0
20.333333333333	0	0
20.905165514021	-0.87509566217461	0
10.5	-0.35154628884586	0
10.333333333333	0	0
9.3280061897341	-0.61041034021496	0
10.833333333333	-0.29429712828707	0
10.666666666667	0	0
22.833333333333	-0.55217395360814	0
22.5	-0.72876886968591	0
22.915493514149	-1.1101467813362	0
5.2020787936337	-1.0219070688786	0
18.833333333333	-0.29429712828707	0
18.925344390347	-0.75760412093207	0
19.166666666667	-0.35154628884587	0
22.666666666667	0	0
22.5	-0.35154628884586	0
13.833333333333	-0.55217395360814	0
14	0	0
16.833333333333	-0.55217395360814	0
0	0	0
14.166666666667	-0.35154628884586	0
14.333333333333	0	0
14.5	-0.55217395360814	0
14.833333333333	-0.35154628884586	0
14.666666666667	0	0
15	0	0
15.166666666667	-0.55217395360814	0
15.333333333333	0	0
2.0948344859795	-0.87509566217461	0
2.2850956781966	-0.60378553647187	0
12	0	0
11.666666666667	0	0
22.166666666667	-0.95506458788032	0
22.166666666667	-0.55217395360814	0
21.833333333333	-0.7287688696859	0
15.5	-0.35154628884586	0
15.666666666667	0	0
17	0	0
20.833333333333	-0.29429712828707	0
20.661339523067	-0.61041034021495	0
9	0	0
14.166666666667	-0.72876886968591	0
17.333333333333	0	0
17.166666666667	-0.35154628884586	0
18	0	0
17.666666666667	0	0
17.833333333333	-0.55217395360814	0
17.5	-0.29429712828708	0
16.258677723681	-0.75760412093209	0
12.833333333333	-0.28872883340808	0
18.166666666667	-0.35154628884586	0
18.333333333333	0	0
17.407988942986	-0.7576041209321	0
19	0	0
19.333333333333	0	0
18.666666666667	0	0
12.166666666667	-0.28867513459481	0
12.333333333333	0	0
15.833333333333	-0.55217395360814	0
20.166666666667	-0.55217395360814	0
19.5	-0.55217395360815	0
7.5	-0.28867513958836	0
23.5	-0.29429712828708	0
21.833333333333	-0.35154628884586	0
22	0	0
26.592011057014	-0.7576041209321	0
22.333333333333	0	0
23.934922518609	-1.0280995368212	0
25.166666666667	-0.35154628884587	0
25.5	-0.55217395360815	0
25.333333333333	0	0
23.166666666667	-0.35154628884586	0
23	0	0
26.666666666667	0	0
26.5	-0.29429712828708	0
23.666666666667	0	0
23.333333333333	0	0
26.166666666667	-0.55217395360814	0
26.333333333333	0	0
26	0	0
24.761501152646	-0.87509566217461	0
24.951762344863	-0.60378553647187	0
24.5	-0.35154628884586	0
33.5	-0.35154628884586	0
33.238498847354	-0.8750956621746	0
33.833333333333	-0.55217395360815	0
24.666666666667	0	0
28.166666666667	-0.35154628884587	0
28.5	-0.55217395360815	0
28.333333333333	0	0
25	0	0
24.833333333333	-0.29429712828707	0
27.761501152646	-0.87509566217461	0
27.951762344863	-0.60378553647187	0
29.333333333333	0	0
29	0	0
29.166666666667	-0.55217395360814	0
25.833333333333	-0.35154628884586	0
29.947484315848	-0.62869436758688	0
30.409983486194	-0.76921735210505	0
34.166666666667	-0.72876886968591	0
34.166666666667	-0.35154628884586	0
25.666666666667	0	0
35.445556916718	-1.0538354750779	0
35.333287434407	-0.57364431858632	0
29.666666666667	0	0
29.5	-0.28872883340808	0
26.834868536478	-1.5356869134355	0
30.833333333333	-0.28872883340808	0
30.671365010853	-0.57276869068256	0
27.666666666667	0	0
38.204670056311	-1.4270134762662	0
38.601589185276	-1.0280995368212	0
38.094834485979	-0.87509566217463	0
28	0	0
27.833333333333	-0.29429712828707	0
36.662074300781	-0.56642454030296	0
28.666666666667	0	0
31.746636025369	-1.1187108767801	0
28.833333333333	-0.35154628884586	0
33	0	0
33.166666666667	-0.29429712828707	0
33.333333333333	0	0
34.5	-0.55217395360814	0
34.731644951192	-0.92970615345739	0
35.666666666667	0	0
35.5	-0.28872883340809	0
30.333333333333	0	0
31	0	0
31.166666666667	-0.28867513958836	0
31.333333333333	0	0
38.285095678197	-0.60378553647188	0
37.833333333333	-0.35154628884586	0
30.666666666667	0	0
30.5	-0.29429712828708	0
36.5	-0.28872883340808	0
33.666666666667	0	0
36.41952417611	-0.77749898599357	0
38.5	-0.35154628884586	0
38.833333333333	-0.55217395360815	0
38.666666666667	0	0
29.657657699283	-0.83081436360664	0
40.168201869811	-1.5356869134355	0
40.5	-0.55217395360814	0
39.925344390347	-0.75760412093211	0
32.994672856401	-0.61041034021495	0
31.5	-0.35154628884586	0
43	0	0
42.666666666667	0	0
42.833333333333	-0.29429712828707	0
43.404176293252	-0.42323554094762	0
35.88498281448	-1.5034830799843	0
41.166666666667	-0.29429712828708	0
41.074655609653	-0.75760412093211	0
41.5	-0.55217395360814	0
41	0	0
41.333333333333	0	0
34.333333333333	0	0
32.166666666667	-0.35154628884586	0
32.333333333333	0	0
39.5	-0.55217395360814	0
39.333333333333	0	0
36.500673817427	-1.6307728168531	0
40.833333333333	-0.35154628884586	0
34.666666666667	0	0
35.333333333333	0	0
35.166666666667	-0.28867513958836	0
35	0	0
36.333333333333	0	0
36	0	0
12.333333329009	-0.57732068917697	0
37.666666666667	0	0
7.9035368819631	-1.2622568520387	0
28.737635378193	-1.2311528923644	0
29.212976838479	-1.0424777721347	0
28.833333333333	-0.7287688696859	0
12.66662076774	-0.57364431858631	0
38.166666666667	-0.29429712828707	0
38.333333333333	0	0
12.5	-0.28867513958836	0
39	0	0
39.166666666667	-0.35154628884586	0
20.347766676375	-1.1439190584087	0
19.833333333333	-0.7287688696859	0
40.666666666667	0	0
42.5	-0.35154628884586	0
10	0	0
18.5	-0.55217395360815	0
41.666666666667	0	0
23.428167819313	-0.87509566217462	0
42	0	0
42.166666666667	-0.29429712828707	0
42.333333333333	0	0
42.744785246826	-0.77776727251482	0
41.833333333333	-0.35154628884586	0
38	0	0
41.542494325991	-1.1832128457714	0
2.6015891852757	-1.0280995368212	0
13.258353909981	-1.6064355191183	0
4.8333333333333	-0.72876886968591	0
15.5	-0.7287688696859	0
15.8687454603	-1.0219070688786	0
16.501535203144	-1.5356869134354	0
14.833333333333	-0.72876886968591	0
12.666666666667	0	0
17.797921206366	-1.0219070688786	0
18.166666666667	-0.7287688696859	0
36.905165514021	-0.87509566217463	0
32.666666666667	0	0
32.5	-0.55217395360814	0
34.833333333333	-0.28867513459481	0
34.999999995676	-0.57732068917696	0
34	0	0
35.169838147031	-0.8650790039227	0
42.285095678197	-0.60378553647188	0
41.877780449001	-0.80261564071807	0
13.238498847354	-0.87509566217461	0
11.333333333333	0	0
11.697267761921	-1.4738194081615	0
12.166692603518	-0.86967323340335	0
3.1666666666667	-0.72876886968591	0
11	0	0
18.535412126967	-1.0219070688787	0
25.833333333333	-0.7287688696859	0
25.268255851942	-1.0280995368211	0
28.268255851942	-1.0280995368211	0
[...]
CELL_DATA 1424
SCALARS Coverage double 1
LOOKUP_TABLE default
2.8600209236762 3.1023388837967 2.0221957981367 2.6010267949914 1.8186686678082 2.969982556418 2.7950952517654 2.3063641413832 2.746087558211 2.5862494701742 2.813453871399 2.4142661499102 2.8293189042772 2.6373293243105 2.6694310709477 2.5929757263338 2.4765855055993 3.2084058289317 2.6107609848324 3.1993155671052 3.250429184251 3.2190640976314 2.9272335404048 2.9457816455213 2.9456505633468 2.9296605942313 2.94278704698 2.8441971451965 2.5175641465105 2.926097514865 2.9707353716393 2.6446995527462 2.7555863930239 2.9441260768603 2.889457663719 2.7335395437205 2.9577341493652 3.292265399055 2.4937501365999 2.7193374503987 2.6423135104325 3.0118481302966 3.1397752566675 3.2267747278508 2.8096876972394 2.4434699583735 2.850830575566 3.2494010682921 3.2380044475048 2.1323919651018 2.9613169688973 3.0465364690458 2.6975137813679 2.3548286997644 2.7929108825797 2.6204051593563 2.4904134513245 2.4187649092484 2.863676090626 2.9269357227039 3.3074074070494 2.8584611661037 3.114061520854 2.3587432422574 2.6210560370591 3.0824895111452 2.9741875925284 2.9069085747721 2.6610249914001 2.7809847339736 2.9201126961337 2.7084884574818 2.8133531647144 2.596884286027 2.4020528305528 2.7254135925543 2.8327726390756 2.7484296436023 2.4348704464719 3.0158825414487 2.7733805803399 2.5608818333038 2.7146617766942 3.0690976705244 2.5849875317342 2.7775817250186 3.012753749951 2.8476858049355 2.8457724257353 2.3185671454791 2.7824434458521 2.4195093549956 3.0500251087925 2.6263563210789 2.5072136042216 2.9338344106177 2.3477029472876 3.0339921889216 2.7357562231711 3.0140101799946 2.6463315339595 3.0724878182235 2.6541086051133 3.0054440246218 2.8382075364006 2.6968216357388 2.8093493630197 2.743823877584 2.8203998671776 3.0280530990978 2.6516556812019 3.2155597576984 3.257018016822 3.053151418586 2.6517232950413 2.8584460176422 3.1290365085414 2.7874425111351 3.1430950959666 2.867651531046 2.7530916513687 2.8788445443758 2.9321927338126 2.7883266995837 2.7223679782126 3.0602544376425 2.7391559850966 2.7852908975161 2.8913083111924 2.8139567638273 3.3008299531184 2.7408005191891 3.0316719639238 3.2447838364836 2.6413247003426 2.9133726704704 2.8699276901812 2.9506599287807 3.1868890608579 2.9076187039744 3.1634035081172 3.0962518151776 2.71731093814 2.7142071371672 3.067206446937 2.9357791065321 3.3772137282021 2.9715643297425 2.740308078696 3.1879872454371 2.8492884722698 2.7448173551276 3.0016421141907 3.2062635455399 2.776363896895 3.1778518140765 2.5869409562976 3.0417067110326 2.9773763083593 2.8373821241126 2.5756591146513 2.8065654662093 3.0907522124437 2.3124179131287 3.374095527629 2.9797142502205 2.742092518964 3.0649886379017 2.6126319298235 2.8662124291234 3.2136653041899 3.1599734183509 2.9014520092167 3.1898975342784 2.6509216849671 2.9049251791066 2.6575284322065 3.1740372457677 3.2084574641967 3.3755139197647 2.5984692839153 3.0827850430146 2.9516261491432 3.0838849597456 2.965319297245 2.8693871663448 2.7089290485485 2.7546957124354 2.7456645692031 2.397861535853 2.7747338960167 2.7452221597302 2.8815358476372 2.9142685993385 3.0772661142797 2.2501150539181 2.4266801292043 2.7910268996847 2.4752436457117 2.9736212062796 2.9282583230602 2.8177104467612 3.1773575974587 2.8888411462627 2.3066174802505 2.5092027498295 2.6230703028209 3.044735891056 2.716908985471 2.9549171476816 3.1937945462475 2.9387705780704 2.6566121504873 3.1121082577217 2.6579924441331 2.952451032079 2.7849537644058 2.6886788271848 2.7320197003162 2.4381518389208 2.8570626592659 2.5600512008045 2.5502198038229 2.6536670383334 2.4837111342146 2.8240359332964 2.8374301560774 3.0614272673088 2.870972144845 2.7347480210058 3.0516100785878 3.0991623813887 2.5535363583229 2.8541086889078 2.5262783196448 2.8830658050834 2.706103534963 3.2141212972211 2.9208538693115 2.9504873790111 2.850753373911 2.6768601809639 2.7013574837341 2.8661029097779 2.6864532054447 2.967451852676 2.8609988210408 2.1821450583074 2.7215731982233 2.7434944140519 2.9619010237366 2.5851358180058 2.718437299663 2.6329182089917 2.7816922836555 3.0707645021174 2.6577897089677 2.8701160348393 2.307520452231 2.4588911465446 3.1474551468574 2.3149141741062 2.6214434495884 2.7737870772352 2.5659861709525 2.8005535138363 2.5341465702418 2.608006486777 2.7130836130181 2.2637335741446 2.5497015066698 2.6458162367549 2.533236170517 2.5517749554013 2.4708057886263 2.6482375563039 2.7586569855722 2.7989729063587 2.6366961706077 2.6425824261463 2.7898494147735 3.2062613953508 2.8789925555686 2.5397332728204 2.6653080516776 2.6495898235632 2.7653783929605 2.7081849062489 2.78796445958 2.8273081298785 2.6749445673407 2.7865226967691 2.8118501674537 3.3923186256213 2.8518100606609 2.9105592095835 2.7610865753639 2.8066639290359 2.8427546382866 3.3843539755992 2.8648145325223 3.0184086247214 2.7654001735423 2.5711683603898 2.9576535619939 2.7680348811977 2.8244312113517 3.3767358382956 2.9370699220061 2.9413618725394 2.9312575736458 3.3390167405792 2.6764623124318 2.7947412666251 2.6039977462639 2.3945102345852 2.901953882547 2.6096951121425 2.6672457718273 3.0856829757138 2.7077280026001 3.0156815916973 2.8179658913245 2.9852148970634 2.3236829703155 2.401315591145 2.5761624404905 2.5490540563013 2.6388287108304 2.7363584387562 2.5728167035555 2.4972984702901 2.6155197708408 2.8234790028006 2.7845884507067 2.8986540576143 2.3745798380359 2.2512603738763 2.8668420188948 3.2496561915754 2.9593522824367 2.8122475453037 2.6584772292386 2.6811296362813 2.6256528843284 2.7707712648501 2.6777820258055 2.8585444326779 2.696721348911 2.6832797995413 2.920380527717 2.5300178814351 2.2790835031873 2.5730191131883 2.5013986366317 2.3420591293701 2.7010540160867 2.6970617367226 2.4065944393634 2.9365010098948 2.6257084376424 2.4885151833154 2.547985500927 2.6619829615278 2.5697583064185 2.6429041943255 2.4029353544023 2.8670121029149 2.7651656954598 2.9990512701391 2.7097728310827 2.6583087265295 2.6943786565644 2.8991123809456 2.7835554333017 3.0171249281044 2.7436766409826 2.9282573998857 2.8928777710605 2.6732869075326 2.7499462034745 3.0250549667084 3.2072460778483 3.1441459005605 2.6079191866303 2.7667699033721 2.8121749484094 2.8820648294185 2.5580786317696 2.7475863893019 2.9008665110547 2.6963594547761 2.6072740688331 2.8097050999145 2.622336601218 3.3917125265842 2.4894666571434 2.5266045115467 2.3689845615861 2.5973815568521 2.2792058110827 2.4633858809995 2.3112112347157 2.3677052502088 2.5644716385265 2.349248440318 2.3248275986918 2.871080055885 2.4665977173785 2.5440092006839 2.6075388645652 2.6937606766464 2.5697199996774 2.660118283651 2.5231067902922 2.7246408134264 2.6770812220064 2.268385992442 2.5118347941616 2.5402133135874 2.3789386878675 1.9950982180693 2.5307627578102 2.5963166700813 2.7753248139582 2.6448336386012 2.7843379935784 2.6566410974329 2.2284605792688 2.7661551092469 2.6043497694802 2.7375435559635 2.5582006581887 2.8629125382993 2.5734304585768 2.8865387078605 2.5802663720441 2.2647111689972 2.2613772219437 2.7022834410258 2.7014683375699 2.7950437020347 2.5771207639824 2.4098446308536 2.2205461767108 2.8129599554634 2.6255265297822 2.8377379300084 2.6436293623236 2.6892884988115 2.4511295885586 2.4530891041793 1.9103311830662 2.5702169692109 2.4286271013267 2.0493418374441 2.2146725170272 2.4296750187946 2.4803335603419 2.5045227074402 2.5477475280504 2.9018565976719 2.4484046884353 2.2297079500437 1.9459625456073 2.1574360629657 2.6341829616814 2.4071796391043 2.429296640797 2.0768302940465 2.6845376570928 1.8184560046196 2.7358903349661 2.5275053246683 2.5530429457938 2.4997327557281 2.761261218512 3.2594936298329 2.3786703111882 3.0610370167032 2.5447481883193 2.5540413537344 2.556219734061 2.6345189160007 2.3892089484131 2.6060479236431 2.5459139416959 2.5633259974629 2.2510682368213 2.6485107672569 2.4718202216653 2.6670046087248 2.0880654958239 3.0717137261403 2.5488693742303 2.4841725321872 2.2986747569993 2.3938812435639 2.5380422597576 2.6546952720127 3.0082916076684 1.7313276022375 2.6901207543066 2.6332950103657 2.3496055389767 2.4563562690192 2.0497819567147 2.1595590409241 2.5586682082068 2.2882759711912 1.879996639869 2.4810680500061 2.3729508880085 2.8089140774909 2.1216933858192 2.3357667763736 2.301163116172 2.3810742691955 2.0659676494956 2.0968066739713 2.5037647426045 2.6527943694523 2.4960420662847 2.4521158112178 2.3017026019398 2.3390993733373 2.0081943153143 2.4917875583039 2.2270835248801 2.2152945467405 2.5083813771359 2.408886380653 2.5896546446914 2.3808646489292 2.1691036072696 2.5270105072627 1.8448527724979 2.1845380428949 2.4211566198269 1.641677600615 2.2771763297685 2.2725882708243 2.5517809950617 2.3677777325878 1.7986023179592 2.5593958540418 2.541563875201 2.6063933916491 2.623790185042 2.4809479902828 2.3964154360699 2.4693780670602 2.4488847781296 2.4608485131326 2.1142779927188 2.0053004692244 2.6414021576538 2.5248619124017 2.3371963578316 2.4203296069975 2.3438680482594 2.6834535176104 2.4201486345539 2.2678784831685 2.2322056843712 2.2665389941478 2.3995868421822 2.5585872371523 2.9532608636848 2.6225368834332 2.0219076409058 2.4836087816172 2.8319339790952 1.9808989140918 2.4172664150557 2.4207684357459 2.3117164349608 2.3094796399102 2.6416015487691 3.0387747762479 2.4005244309054 2.3476281341918 2.3413189329403 2.3919188875785 2.7093318890008 2.4830346203643 2.1818723266821 2.171005484058 1.6834275761908 2.1124492951743 2.1942019402984 1.7672163716334 2.7670557677806 2.6292625500115 2.3464621612439 2.2766989325469 2.7020208810051 2.6216113663026 1.9811464005579 1.3165137351601 2.2782627719653 2.3339504699729 2.1300519647962 2.8188267998983 2.0517123467854 2.0193702904728 2.5488726670929 2.7350875060731 2.437519295098 2.3243973667659 2.4145352680466 2.3401764889406 2.1725257899439 2.4705198749535 2.1665005130585 2.3436827035258 2.4862811605592 3.1914528721102 2.1534226027851 1.9934388907235 1.9665131959417 2.195668736966 2.1086122291278 1.9540068958052 2.1940152041782 2.2394626436016 2.3143367418893 2.0615669261165 1.9779690939978 2.5138839182122 2.4286076287497 2.5966954008775 2.3089574265591 1.8344246277384 2.4075778459435 1.7017360911145 1.5894010287846 1.8828808084812 2.3393701168326 2.6959673885099 1.9830404878478 2.7000968645341 2.1250894994056 2.1607192512817 1.9992893364644 2.2690513831051 2.0059416119727 2.5172783800694 1.9039414899614 2.2702523452963 2.0886111937644 1.6566382140194 2.1046105613754 2.1524011859378 2.2754552909238 2.2317202716238 2.2907110827428 2.0727492095975 2.379076924173 2.7584206087121 2.0484908087287 2.3123949205757 2.2082307169871 2.164082503866 2.3661389083746 2.1086100436203 2.1302727262547 2.6549063469473 2.4435136955325 2.1447798478283 2.853061782129 1.5707622893468 2.0191909796359 2.6831629378774 2.1022382754771 2.3190621006616 1.2888715049468 2.0559613760883 2.7600207230658 2.1738890232606 1.8373331715215 1.9355699195055 2.299313081847 2.1222810665906 1.8742006308848 2.1350941281787 1.9460622836776 2.0802917177967 1.9354959129679 2.3290276658794 2.0684590956004 1.8940416988009 2.1118552411284 2.0764087096732 2.1550743075819 2.0306960226278 2.0531844105902 2.8955877095913 1.9866805844158 2.14229232877 2.3306769269406 2.1632800112629 2.0081031984275 2.2336319627781 1.7440936593305 1.9463811137657 1.8298022033166 1.894156046644 2.0663950554288 2.7146803472371 2.3103527678445 1.9805607480819 1.7355350595714 2.3933971097259 2.0514560900268 1.3637309795387 1.8125373541059 0.57307209000553 0.75422583463357 2.0117428352889 1.9604110738082 1.8476244661972 1.3853986233453 2.1189977951497 0.85727314083975 2.5219051092467 2.6673123433181 1.9575886317623 1.4346660326511 1.2207721240613 1.837018609159 2.5222827463162 1.6360092570164 1.8091090343674 1.830791815525 2.4438449473871 1.8012894943356 1.8622119101285 1.9968003709804 1.6705768661114 2.1397066510883 1.9178179255009 2.076151860493 2.028471455546 2.0687001622724 1.8591645814291 1.6204863722983 1.9985205585351 2.2936075204852 1.5614929147045 2.4662722344138 2.6097635995926 2.4764745991753 1.8685192280755 2.3066892748291 1.6413164491782 1.6334806256098 1.7100505747169 1.6822315689118 1.91597633253 2.1098929413973 2.1461501128743 2.8803337518786 1.7273801955082 1.6772436968798 1.534489093916 1.6087493377495 2.3812105520017 1.9536647721313 1.7602436854971 1.9582976846157 1.7195169829 1.3715731905856 1.3581477083755 1.9508986665947 1.5616831179319 1.4887428506843 1.5629256365726 1.8224542707055 2.2391411012083 1.2513018756411 1.8799321186269 1.2058415244932 1.4754359349847 1.6089236827958 1.9732373789167 1.7329716673333 2.2274095358616 2.0415336420654 2.0229965336915 2.1158914369937 1.6839687500614 1.8650450860691 1.864494836184 1.7316598500653 1.8404259233895 1.9393006082444 1.5035179215742 2.0152931494404 1.7581958349756 1.6530268780993 1.7974044935345 1.8559891382798 1.8596068855869 1.1576800574427 2.0003676407418 1.65588725674 1.7662894071643 1.5030735188547 1.7828444782461 1.4899070626067 1.4529887799716 1.6481705068614 1.6922351536563 1.4885825226322 1.703930792443 1.5963313985737 1.3542196598396 1.4915382014309 1.5282411940051 1.1793544174184 1.6917844218748 1.2806485918924 1.7112805720968 1.5362419093568 1.571907226506 1.2828480812411 1.3651411470282 0.93222337812957 1.218162145501 1.4377601222789 1.2760305147011 1.1795450201634 1.4896818392816 1.3888234359092 1.568450598899 1.0902463268432 1.7283711074128 1.9106275309702 2.0559147958607 1.6737561079516 1.4449749295242 1.5020888690782 1.6016155663224 1.433943981049 1.3298958350026 1.9004606654025 0.94313326245986 1.4922987380256 1.6448192486238 1.7731637478406 1.6726410760163 1.5640714810121 1.4447743572829 1.4359768055032 1.2094989694755 1.0923180291122 1.2711456758151 1.4594758682862 1.3300830468879 1.4829905235821 1.1170872649015 1.7702577054236 1.4017056403982 1.699525604271 1.7730461260673 1.3371810679631 1.3133299767618 1.5893658703158 1.5961129550594 1.279320474766 1.4172365564336 1.3306583734179 1.4699380709035 1.3239955337131 0.79077726369474 1.2304112383911 1.5307741425457 1.2574095743033 1.025078917512 1.4600005354408 1.3123728724337 1.2365591123807 1.1320418001871 1.4546469327552 1.0649419317158 1.1875680103117 1.2168750027071 1.2116535729774 1.0262302077021 1.138062490797 0.68783617285372 0.88422360288682 1.0359471943327 0.90243714237337 1.2536265752441 1.3235944596377 1.218836715402 0.96904610281197 0.73667220647956 1.0488142093598 1.0924425632425 1.6090811702433 1.2202843602968 1.0824527555214 0.97226536386923 1.1613077129408 0.99697093273222 1.2177763517654 0.4339253822647 1.0968752176047 1.496271754778 0.89807867241325 1.0844065813039 0.70597296498975 0.78098068296018 1.0128594175129 1.2382597646979 0.86945805578669 0.91773414500955 0.91178625579085 0.63233703353465 0.90286967114806 0.45051550217662 0.39637453587194 0.44854128713497 0.58566139550907 0.76662578298624 0.82957553031666 0.80887795455751 0.7028825710066 0.75394621122739 0.84321818439424 0.85637246983644 0.4163239698858 0.72660587782666 0.94886926569783 1.6543975906555 1.6632795401742 1.1519340549247 1.3375395972851 1.0661426827189 1.1877413583435 1.1491326594478 0.66254919754614 0.77026963611489 0.63671935973198 0.64290050695242 0.637622930954 0.76420230673218 1.0445515299789 0.64688852727848 0.60444428916019 0.72762471649235 0.83161023244431 0.55213517491378 0.53478132616019 0.78022434095972 1.4545597266559 0.74763917108401 1.4347461395875 1.1363138947045 1.4686458351236 1.5182193933731 1.3864506371125 1.3461362945305 1.1438852209379 1.2588909408688 1.2594407287391 0.80128248672149 0.65165613182976 0.4701611751929 0.40922714153254 0.41443855221293 0.87413051151378 1.1629909214216 1.0702019543698 1.3506850830916 0.76246118547463 0.85520317978809 0.95161312455945 1.2909297852416 0.9955724151227 1.2414199994255 1.0896414329596 0.90656186464932 0.76423270998705 0.68973266932753 0.52823814687953 0.78245650204026 0.44664942007833 1.0299584787694 1.0395312033133 1.445651817687 1.1450336274826 1.2533918488842 1.2335101289509 1.4995115872566 1.0372331031624 0.9658964747719 0.59545048135234 0.92884080495321 0.8626982668726 0.93293423242326 0.90758097289219 1.0902124409029 0.50560081520852 0.63799724582374 0.69481629557828 0.57067934940586 0.77659581048448 0.44336265431668 0.53299131740404 0.80397733827204 0.89482834465306 1.0365607161521 0.64681882438349 1.1503457561594 0.72630332186309 1.3353090060581 0.97763580434835 0.7462233659218 1.1349317345471 0.92514913967544 1.0904016190694 1.0174556553375 0.49716280871297 0.41125114471012 1.0617565280038 0.7019602183796 0.72447555749982 0.61007650343995 0.65043900551006 1.1123254728538 0.492245533103 0.64332069682772 0.8280967436028 0.70374635983717 0.96104711949977 0.88670339659182 0.57402065088232 0.46326806233102 1.1083179468438 1.0316039806762 1.183899454314 0.86715671059138 0.9226181344392 1.0219962667877 0.94066822565717 0.76272816612949 0.83658822040149 0.95966928212274 0.55846698819326 0.43697160857271 0.81214154647318 0.50359484493967 0.76324874826648 0.77251758469569 0.38797627186 0.49923055899292 0.54763614269822 0.61256358585394 0.84864214374827 0.95583054195686 0.76010769149979 0.44864578953208 0.86199134287825 0.43477162907278 0.42921105361415 1.0416792718495 0.5219557830491 1.3578909183983 1.1782326362736 0.71866134846008 0.77232059683282 0.49545579070463 1.1384338146296 0.6214267667472 0.56018332339972 1.687065626237 1.3253088439973 0.59921405794782 0.75219463490249 0.6916939622798 0.48861139108228 0.44915762519255 0.49323381557558 0.40404848985525 0.5432266309184 0.40057446258865 0.46425107405069 0.5219999291507 0.71612046330236 0.58521709195539 0.52290292663723 0.40278630165766 0.6540026674769 0.44419245788484 1.654663271523 1.3038577719186 1.1394898663677 1.0201007316348 0.46194978257257 0.51833855659269 0.5980950214148 0.43473766609012 0.41534470050002 0.57219050661407 0.94439382582114 0.72006105697666 0.68331046747094 0.56258472771809 0.40837846035071 1.1471862945464 0.82290507138452 0.55475251637047 0.4188034748554 0.60109647178985 0.46285257272098 0.49040820581281 0.40708553617568 0.42708677545564 0.56969402396585 0.7213131117981 1.1218428158727 0.6365362512081 0.58465871118466 0.67981816868538 0.7865904602457 0.71344698267867 0.40422658233143 0.64112611166338 0.78847825505065 0.8522642810027 0.89419898886275 0.96477613469014 0.90686284003565 0.80371473968614 0.73937153527257 0.86312437869682 0.6187608793371 0.65505956702711 0.58999129480615 0.84539996501793 0.4446455716496 1.104579345363 0.79781514793283 1.2691555636346 1.1177664944078 0.71017294347309 0.67019968499368 0.70813799176071 0.53905959993756 0.62998969567683 0.4000604369768 0.86960954069913 0.62958019289921 0.72822427549949 0.8643996744117 0.77470915844891 1.1157837926772 0.65297073956841 0.69195651430468 0.7774230182577 0.75114420598228 0.63488737613834 0.46439055737576 0.53125906749118 0.89742547784571 0.68701892343688 0.93417059579349 1.0239040818232 1.0193346917551 1.4370850614507 0.40633157992005 0.55438703969754 0.8944174427751 1.0406435090517 1.5373747398492 1.3989726620425 0.81383983687331 0.69779275387549 1.7988751836066 1.6235176381925 1.3486433670473 1.5323390909493 1.3000822520586 0.73777928111074 1.5838041000977 1.3251450718614 1.1888320005129 1.2877775188538 1.100774332951 0.85352326816034 0.94141030969673 1.0909920259754 0.91601275725727 0.92972389778766 0.84036372574905 1.2196238010762 1.4959538902903 2.0437731279202 1.7246413383223 1.4489565870929 1.2212646225663 1.1215150648102 0.69919307952905 1.2044510876816 0.99282023857479 1.2931807892444 1.012828283784 0.98888619732151 0.82749640395911 1.1413282532285 0.79161459563389 0.72957505836232 1.0699380437958 1.981568215022 1.838281962534 1.9657577393863 1.567991392534 1.0220179171512 1.2732757964862 1.4128360730151 1.3409212964283 1.2843434070121 1.2386912282519 1.2487935549431 1.3903702025802 1.1420088049626 0.93773759279015 1.8348774412073 1.6282250823043 0.65721670535826 0.3677066394791 0.53552309903228 0.4380136404369 1.232008161429 1.4766415951292 0.50113440824532 0.437691