# vtk DataFile Version 3.0
d-2__ created by libgimli-v1.5.0-1-g5991b6ac
ASCII
DATASET UNSTRUCTURED_GRID
POINTS 10201 double
0	-10	0
0.5	-10	0
0.5	-9.9	0
0	-9.9	0
1	-10	0
1	-9.9	0
1.5	-10	0
1.5	-9.9	0
2	-10	0
2	-9.9	0
2.5	-10	0
2.5	-9.9	0
3	-10	0
3	-9.9	0
3.5	-10	0
3.5	-9.9	0
4	-10	0
4	-9.9	0
4.5	-10	0
4.5	-9.9	0
5	-10	0
5	-9.9	0
5.5	-10	0
5.5	-9.9	0
6	-10	0
6	-9.9	0
6.5	-10	0
6.5	-9.9	0
7	-10	0
7	-9.9	0
7.5	-10	0
7.5	-9.9	0
8	-10	0
8	-9.9	0
8.5	-10	0
8.5	-9.9	0
9	-10	0
9	-9.9	0
9.5	-10	0
9.5	-9.9	0
10	-10	0
10	-9.9	0
10.5	-10	0
10.5	-9.9	0
11	-10	0
11	-9.9	0
11.5	-10	0
11.5	-9.9	0
12	-10	0
12	-9.9	0
12.5	-10	0
12.5	-9.9	0
13	-10	0
13	-9.9	0
13.5	-10	0
13.5	-9.9	0
14	-10	0
14	-9.9	0
14.5	-10	0
14.5	-9.9	0
15	-10	0
15	-9.9	0
15.5	-10	0
15.5	-9.9	0
16	-10	0
16	-9.9	0
16.5	-10	0
16.5	-9.9	0
17	-10	0
17	-9.9	0
17.5	-10	0
17.5	-9.9	0
18	-10	0
18	-9.9	0
18.5	-10	0
18.5	-9.9	0
19	-10	0
19	-9.9	0
19.5	-10	0
19.5	-9.9	0
20	-10	0
20	-9.9	0
20.5	-10	0
20.5	-9.9	0
21	-10	0
21	-9.9	0
21.5	-10	0
21.5	-9.9	0
22	-10	0
22	-9.9	0
22.5	-10	0
22.5	-9.9	0
23	-10	0
23	-9.9	0
23.5	-10	0
23.5	-9.9	0
24	-10	0
24	-9.9	0
24.5	-10	0
24.5	-9.9	0
25	-10	0
25	-9.9	0
25.5	-10	0
25.5	-9.9	0
26	-10	0
26	-9.9	0
26.5	-10	0
26.5	-9.9	0
27	-10	0
27	-9.9	0
27.5	-10	0
27.5	-9.9	0
28	-10	0
28	-9.9	0
28.5	-10	0
28.5	-9.9	0
29	-10	0
29	-9.9	0
29.5	-10	0
29.5	-9.9	0
30	-10	0
30	-9.9	0
30.5	-10	0
30.5	-9.9	0
31	-10	0
31	-9.9	0
31.5	-10	0
31.5	-9.9	0
32	-10	0
32	-9.9	0
32.5	-10	0
32.5	-9.9	0
33	-10	0
33	-9.9	0
33.5	-10	0
33.5	-9.9	0
34	-10	0
34	-9.9	0
34.5	-10	0
34.5	-9.9	0
35	-10	0
35	-9.9	0
35.5	-10	0
35.5	-9.9	0
36	-10	0
36	-9.9	0
36.5	-10	0
36.5	-9.9	0
37	-10	0
37	-9.9	0
37.5	-10	0
37.5	-9.9	0
38	-10	0
38	-9.9	0
38.5	-10	0
38.5	-9.9	0
39	-10	0
39	-9.9	0
39.5	-10	0
39.5	-9.9	0
40	-10	0
40	-9.9	0
40.5	-10	0
40.5	-9.9	0
41	-10	0
41	-9.9	0
41.5	-10	0
41.5	-9.9	0
42	-10	0
42	-9.9	0
42.5	-10	0
42.5	-9.9	0
43	-10	0
43	-9.9	0
43.5	-10	0
43.5	-9.9	0
44	-10	0
44	-9.9	0
44.5	-10	0
44.5	-9.9	0
45	-10	0
45	-9.9	0
45.5	-10	0
45.5	-9.9	0
46	-10	0
46	-9.9	0
46.5	-10	0
46.5	-9.9	0
47	-10	0
47	-9.9	0
47.5	-10	0
47.5	-9.9	0
48	-10	0
48	-9.9	0
48.5	-10	0
48.5	-9.9	0
49	-10	0
49	-9.9	0
49.5	-10	0
49.5	-9.9	0
50	-10	0
50	-9.9	0
0.5	-9.8	0
0	-9.8	0
1	-9.8	0
1.5	-9.8	0
2	-9.8	0
2.5	-9.8	0
3	-9.8	0
3.5	-9.8	0
4	-9.8	0
4.5	-9.8	0
5	-9.8	0
5.5	-9.8	0
6	-9.8	0
6.5	-9.8	0
7	-9.8	0
7.5	-9.8	0
8	-9.8	0
8.5	-9.8	0
9	-9.8	0
9.5	-9.8	0
10	-9.8	0
10.5	-9.8	0
11	-9.8	0
11.5	-9.8	0
12	-9.8	0
12.5	-9.8	0
13	-9.8	0
13.5	-9.8	0
14	-9.8	0
14.5	-9.8	0
15	-9.8	0
15.5	-9.8	0
16	-9.8	0
16.5	-9.8	0
17	-9.8	0
17.5	-9.8	0
18	-9.8	0
18.5	-9.8	0
19	-9.8	0
19.5	-9.8	0
20	-9.8	0
20.5	-9.8	0
21	-9.8	0
21.5	-9.8	0
22	-9.8	0
22.5	-9.8	0
23	-9.8	0
23.5	-9.8	0
24	-9.8	0
24.5	-9.8	0
25	-9.8	0
25.5	-9.8	0
26	-9.8	0
26.5	-9.8	0
27	-9.8	0
27.5	-9.8	0
28	-9.8	0
28.5	-9.8	0
29	-9.8	0
29.5	-9.8	0
30	-9.8	0
30.5	-9.8	0
31	-9.8	0
31.5	-9.8	0
32	-9.8	0
32.5	-9.8	0
33	-9.8	0
33.5	-9.8	0
34	-9.8	0
34.5	-9.8	0
35	-9.8	0
35.5	-9.8	0
36	-9.8	0
36.5	-9.8	0
37	-9.8	0
37.5	-9.8	0
38	-9.8	0
38.5	-9.8	0
39	-9.8	0
39.5	-9.8	0
40	-9.8	0
40.5	-9.8	0
41	-9.8	0
41.5	-9.8	0
42	-9.8	0
42.5	-9.8	0
43	-9.8	0
43.5	-9.8	0
44	-9.8	0
44.5	-9.8	0
45	-9.8	0
45.5	-9.8	0
46	-9.8	0
46.5	-9.8	0
47	-9.8	0
47.5	-9.8	0
48	-9.8	0
48.5	-9.8	0
49	-9.8	0
49.5	-9.8	0
50	-9.8	0
0.5	-9.7	0
0	-9.7	0
1	-9.7	0
1.5	-9.7	0
2	-9.7	0
2.5	-9.7	0
3	-9.7	0
3.5	-9.7	0
4	-9.7	0
4.5	-9.7	0
5	-9.7	0
5.5	-9.7	0
6	-9.7	0
6.5	-9.7	0
7	-9.7	0
7.5	-9.7	0
8	-9.7	0
8.5	-9.7	0
9	-9.7	0
9.5	-9.7	0
10	-9.7	0
10.5	-9.7	0
11	-9.7	0
11.5	-9.7	0
12	-9.7	0
12.5	-9.7	0
13	-9.7	0
13.5	-9.7	0
14	-9.7	0
14.5	-9.7	0
15	-9.7	0
15.5	-9.7	0
16	-9.7	0
16.5	-9.7	0
17	-9.7	0
17.5	-9.7	0
18	-9.7	0
18.5	-9.7	0
19	-9.7	0
19.5	-9.7	0
20	-9.7	0
20.5	-9.7	0
21	-9.7	0
21.5	-9.7	0
22	-9.7	0
22.5	-9.7	0
23	-9.7	0
23.5	-9.7	0
24	-9.7	0
24.5	-9.7	0
25	-9.7	0
25.5	-9.7	0
26	-9.7	0
26.5	-9.7	0
27	-9.7	0
27.5	-9.7	0
28	-9.7	0
28.5	-9.7	0
29	-9.7	0
29.5	-9.7	0
30	-9.7	0
30.5	-9.7	0
31	-9.7	0
31.5	-9.7	0
32	-9.7	0
32.5	-9.7	0
33	-9.7	0
33.5	-9.7	0
34	-9.7	0
34.5	-9.7	0
35	-9.7	0
35.5	-9.7	0
36	-9.7	0
36.5	-9.7	0
37	-9.7	0
37.5	-9.7	0
38	-9.7	0
38.5	-9.7	0
39	-9.7	0
39.5	-9.7	0
40	-9.7	0
40.5	-9.7	0
41	-9.7	0
41.5	-9.7	0
42	-9.7	0
42.5	-9.7	0
43	-9.7	0
43.5	-9.7	0
44	-9.7	0
44.5	-9.7	0
45	-9.7	0
45.5	-9.7	0
46	-9.7	0
46.5	-9.7	0
47	-9.7	0
47.5	-9.7	0
48	-9.7	0
48.5	-9.7	0
49	-9.7	0
49.5	-9.7	0
50	-9.7	0
0.5	-9.6	0
0	-9.6	0
1	-9.6	0
1.5	-9.6	0
2	-9.6	0
2.5	-9.6	0
3	-9.6	0
3.5	-9.6	0
4	-9.6	0
4.5	-9.6	0
5	-9.6	0
5.5	-9.6	0
6	-9.6	0
6.5	-9.6	0
7	-9.6	0
7.5	-9.6	0
8	-9.6	0
8.5	-9.6	0
9	-9.6	0
9.5	-9.6	0
10	-9.6	0
10.5	-9.6	0
11	-9.6	0
11.5	-9.6	0
12	-9.6	0
12.5	-9.6	0
13	-9.6	0
13.5	-9.6	0
14	-9.6	0
14.5	-9.6	0
15	-9.6	0
15.5	-9.6	0
16	-9.6	0
16.5	-9.6	0
17	-9.6	0
17.5	-9.6	0
18	-9.6	0
18.5	-9.6	0
19	-9.6	0
19.5	-9.6	0
20	-9.6	0
20.5	-9.6	0
21	-9.6	0
21.5	-9.6	0
22	-9.6	0
22.5	-9.6	0
23	-9.6	0
23.5	-9.6	0
24	-9.6	0
24.5	-9.6	0
25	-9.6	0
25.5	-9.6	0
26	-9.6	0
26.5	-9.6	0
27	-9.6	0
27.5	-9.6	0
28	-9.6	0
28.5	-9.6	0
29	-9.6	0
29.5	-9.6	0
30	-9.6	0
30.5	-9.6	0
31	-9.6	0
31.5	-9.6	0
32	-9.6	0
32.5	-9.6	0
33	-9.6	0
33.5	-9.6	0
34	-9.6	0
34.5	-9.6	0
35	-9.6	0
35.5	-9.6	0
36	-9.6	0
36.5	-9.6	0
37	-9.6	0
37.5	-9.6	0
38	-9.6	0
38.5	-9.6	0
39	-9.6	0
39.5	-9.6	0
40	-9.6	0
40.5	-9.6	0
41	-9.6	0
41.5	-9.6	0
42	-9.6	0
42.5	-9.6	0
43	-9.6	0
43.5	-9.6	0
44	-9.6	0
44.5	-9.6	0
45	-9.6	0
45.5	-9.6	0
46	-9.6	0
46.5	-9.6	0
47	-9.6	0
47.5	-9.6	0
48	-9.6	0
48.5	-9.6	0
49	-9.6	0
49.5	-9.6	0
50	-9.6	0
0.5	-9.5	0
0	-9.5	0
1	-9.5	0
1.5	-9.5	0
2	-9.5	0
2.5	-9.5	0
3	-9.5	0
3.5	-9.5	0
4	-9.5	0
4.5	-9.5	0
5	-9.5	0
5.5	-9.5	0
6	-9.5	0
6.5	-9.5	0
7	-9.5	0
7.5	-9.5	0
8	-9.5	0
8.5	-9.5	0
9	-9.5	0
9.5	-9.5	0
10	-9.5	0
10.5	-9.5	0
11	-9.5	0
11.5	-9.5	0
12	-9.5	0
12.5	-9.5	0
13	-9.5	0
13.5	-9.5	0
14	-9.5	0
14.5	-9.5	0
15	-9.5	0
15.5	-9.5	0
16	-9.5	0
16.5	-9.5	0
17	-9.5	0
17.5	-9.5	0
18	-9.5	0
18.5	-9.5	0
19	-9.5	0
19.5	-9.5	0
20	-9.5	0
20.5	-9.5	0
21	-9.5	0
21.5	-9.5	0
22	-9.5	0
22.5	-9.5	0
23	-9.5	0
23.5	-9.5	0
24	-9.5	0
24.5	-9.5	0
25	-9.5	0
25.5	-9.5	0
26	-9.5	0
26.5	-9.5	0
27	-9.5	0
27.5	-9.5	0
28	-9.5	0
28.5	-9.5	0
29	-9.5	0
29.5	-9.5	0
30	-9.5	0
30.5	-9.5	0
31	-9.5	0
31.5	-9.5	0
32	-9.5	0
32.5	-9.5	0
33	-9.5	0
33.5	-9.5	0
34	-9.5	0
34.5	-9.5	0
35	-9.5	0
35.5	-9.5	0
36	-9.5	0
36.5	-9.5	0
37	-9.5	0
37.5	-9.5	0
38	-9.5	0
38.5	-9.5	0
39	-9.5	0
39.5	-9.5	0
40	-9.5	0
40.5	-9.5	0
41	-9.5	0
41.5	-9.5	0
42	-9.5	0
42.5	-9.5	0
43	-9.5	0
43.5	-9.5	0
44	-9.5	0
44.5	-9.5	0
45	-9.5	0
45.5	-9.5	0
46	-9.5	0
46.5	-9.5	0
47	-9.5	0
47.5	-9.5	0
48	-9.5	0
48.5	-9.5	0
49	-9.5	0
49.5	-9.5	0
50	-9.5	0
0.5	-9.4	0
0	-9.4	0
1	-9.4	0
1.5	-9.4	0
2	-9.4	0
2.5	-9.4	0
3	-9.4	0
3.5	-9.4	0
4	-9.4	0
4.5	-9.4	0
5	-9.4	0
5.5	-9.4	0
6	-9.4	0
6.5	-9.4	0
7	-9.4	0
7.5	-9.4	0
8	-9.4	0
8.5	-9.4	0
9	-9.4	0
9.5	-9.4	0
10	-9.4	0
10.5	-9.4	0
11	-9.4	0
11.5	-9.4	0
12	-9.4	0
12.5	-9.4	0
13	-9.4	0
13.5	-9.4	0
14	-9.4	0
14.5	-9.4	0
15	-9.4	0
15.5	-9.4	0
16	-9.4	0
16.5	-9.4	0
17	-9.4	0
17.5	-9.4	0
18	-9.4	0
18.5	-9.4	0
19	-9.4	0
19.5	-9.4	0
20	-9.4	0
20.5	-9.4	0
21	-9.4	0
21.5	-9.4	0
22	-9.4	0
22.5	-9.4	0
23	-9.4	0
23.5	-9.4	0
24	-9.4	0
24.5	-9.4	0
25	-9.4	0
25.5	-9.4	0
26	-9.4	0
26.5	-9.4	0
27	-9.4	0
27.5	-9.4	0
28	-9.4	0
28.5	-9.4	0
29	-9.4	0
29.5	-9.4	0
30	-9.4	0
30.5	-9.4	0
31	-9.4	0
31.5	-9.4	0
32	-9.4	0
32.5	-9.4	0
33	-9.4	0
33.5	-9.4	0
34	-9.4	0
34.5	-9.4	0
35	-9.4	0
35.5	-9.4	0
36	-9.4	0
36.5	-9.4	0
37	-9.4	0
37.5	-9.4	0
38	-9.4	0
38.5	-9.4	0
39	-9.4	0
39.5	-9.4	0
40	-9.4	0
40.5	-9.4	0
41	-9.4	0
41.5	-9.4	0
42	-9.4	0
42.5	-9.4	0
43	-9.4	0
43.5	-9.4	0
44	-9.4	0
44.5	-9.4	0
45	-9.4	0
45.5	-9.4	0
46	-9.4	0
46.5	-9.4	0
47	-9.4	0
47.5	-9.4	0
48	-9.4	0
48.5	-9.4	0
49	-9.4	0
49.5	-9.4	0
50	-9.4	0
0.5	-9.3	0
0	-9.3	0
1	-9.3	0
1.5	-9.3	0
2	-9.3	0
2.5	-9.3	0
3	-9.3	0
3.5	-9.3	0
4	-9.3	0
4.5	-9.3	0
5	-9.3	0
5.5	-9.3	0
6	-9.3	0
6.5	-9.3	0
7	-9.3	0
7.5	-9.3	0
8	-9.3	0
8.5	-9.3	0
9	-9.3	0
9.5	-9.3	0
10	-9.3	0
10.5	-9.3	0
11	-9.3	0
11.5	-9.3	0
12	-9.3	0
12.5	-9.3	0
13	-9.3	0
13.5	-9.3	0
14	-9.3	0
14.5	-9.3	0
15	-9.3	0
15.5	-9.3	0
16	-9.3	0
16.5	-9.3	0
17	-9.3	0
17.5	-9.3	0
18	-9.3	0
18.5	-9.3	0
19	-9.3	0
19.5	-9.3	0
20	-9.3	0
20.5	-9.3	0
21	-9.3	0
21.5	-9.3	0
22	-9.3	0
22.5	-9.3	0
23	-9.3	0
23.5	-9.3	0
24	-9.3	0
24.5	-9.3	0
25	-9.3	0
25.5	-9.3	0
26	-9.3	0
26.5	-9.3	0
27	-9.3	0
27.5	-9.3	0
28	-9.3	0
28.5	-9.3	0
29	-9.3	0
29.5	-9.3	0
30	-9.3	0
30.5	-9.3	0
31	-9.3	0
31.5	-9.3	0
32	-9.3	0
32.5	-9.3	0
33	-9.3	0
33.5	-9.3	0
34	-9.3	0
34.5	-9.3	0
35	-9.3	0
35.5	-9.3	0
36	-9.3	0
36.5	-9.3	0
37	-9.3	0
37.5	-9.3	0
38	-9.3	0
38.5	-9.3	0
39	-9.3	0
39.5	-9.3	0
40	-9.3	0
40.5	-9.3	0
41	-9.3	0
41.5	-9.3	0
42	-9.3	0
42.5	-9.3	0
43	-9.3	0
43.5	-9.3	0
44	-9.3	0
44.5	-9.3	0
45	-9.3	0
45.5	-9.3	0
46	-9.3	0
46.5	-9.3	0
47	-9.3	0
47.5	-9.3	0
48	-9.3	0
48.5	-9.3	0
49	-9.3	0
49.5	-9.3	0
50	-9.3	0
0.5	-9.2	0
0	-9.2	0
1	-9.2	0
1.5	-9.2	0
2	-9.2	0
2.5	-9.2	0
3	-9.2	0
3.5	-9.2	0
4	-9.2	0
4.5	-9.2	0
5	-9.2	0
5.5	-9.2	0
6	-9.2	0
6.5	-9.2	0
7	-9.2	0
7.5	-9.2	0
8	-9.2	0
8.5	-9.2	0
9	-9.2	0
9.5	-9.2	0
10	-9.2	0
10.5	-9.2	0
11	-9.2	0
11.5	-9.2	0
12	-9.2	0
12.5	-9.2	0
13	-9.2	0
13.5	-9.2	0
14	-9.2	0
14.5	-9.2	0
15	-9.2	0
15.5	-9.2	0
16	-9.2	0
16.5	-9.2	0
17	-9.2	0
17.5	-9.2	0
18	-9.2	0
18.5	-9.2	0
19	-9.2	0
19.5	-9.2	0
20	-9.2	0
20.5	-9.2	0
21	-9.2	0
21.5	-9.2	0
22	-9.2	0
22.5	-9.2	0
23	-9.2	0
23.5	-9.2	0
24	-9.2	0
24.5	-9.2	0
25	-9.2	0
25.5	-9.2	0
26	-9.2	0
26.5	-9.2	0
27	-9.2	0
27.5	-9.2	0
28	-9.2	0
28.5	-9.2	0
29	-9.2	0
29.5	-9.2	0
30	-9.2	0
30.5	-9.2	0
31	-9.2	0
31.5	-9.2	0
32	-9.2	0
32.5	-9.2	0
33	-9.2	0
33.5	-9.2	0
34	-9.2	0
34.5	-9.2	0
35	-9.2	0
35.5	-9.2	0
36	-9.2	0
36.5	-9.2	0
37	-9.2	0
37.5	-9.2	0
38	-9.2	0
38.5	-9.2	0
39	-9.2	0
39.5	-9.2	0
40	-9.2	0
40.5	-9.2	0
41	-9.2	0
41.5	-9.2	0
42	-9.2	0
42.5	-9.2	0
43	-9.2	0
43.5	-9.2	0
44	-9.2	0
44.5	-9.2	0
45	-9.2	0
45.5	-9.2	0
46	-9.2	0
46.5	-9.2	0
47	-9.2	0
47.5	-9.2	0
48	-9.2	0
48.5	-9.2	0
49	-9.2	0
49.5	-9.2	0
50	-9.2	0
0.5	-9.1	0
0	-9.1	0
1	-9.1	0
1.5	-9.1	0
2	-9.1	0
2.5	-9.1	0
3	-9.1	0
3.5	-9.1	0
4	-9.1	0
4.5	-9.1	0
5	-9.1	0
5.5	-9.1	0
6	-9.1	0
6.5	-9.1	0
7	-9.1	0
7.5	-9.1	0
[...]
CELL_DATA 10000
SCALARS Coverage double 1
LOOKUP_TABLE default
-0.24394396316694 -0.21779335704957 -0.19312544589834 -0.16982839374643 -0.14791515067304 -0.12739648309736 -0.10827342763333 -0.090497395326595 -0.073974205611751 -0.058655116673453 -0.044539523116338 -0.031646796344032 -0.019787660875846 -0.0090072132173641 0.00087974538687857 0.0099298794275045 0.018168883962908 0.025652350121543 0.032516917156408 0.03869824757192 0.044375219516143 0.049533004093849 0.054259441249686 0.058599775152463 0.062613287764219 0.06625005396581 0.069606034320567 0.07261702709736 0.075311053532129 0.077804755932462 0.080128741244594 0.082374778697204 0.08457273984775 0.086623414722642 0.088484526890129 0.090226295064385 0.092066620511729 0.093823264010003 0.095450474589364 0.09698164599283 0.098371423690546 0.099535378054513 0.10050008068725 0.10126678390431 0.10198873664608 0.10253751074282 0.10272789452444 0.10261721725548 0.10229584994477 0.10170218214682 0.10095017472551 0.10018228540457 0.099488307629649 0.098821658175799 0.098368112061505 0.097991967713209 0.097533048874278 0.096991946010729 0.096373934932501 0.095622492230919 0.094696059502887 0.093599422949013 0.092413770155796 0.090880299421024 0.088963197710027 0.086596565556713 0.083817281655627 0.080511355494533 0.076704460717747 0.072326869059982 0.067326680784983 0.061656329739153 0.055441680392987 0.048689768137185 0.041441814098523 0.033669802112178 0.025363885586236 0.016530522486801 0.0072966118250815 -0.0024121593373381 -0.012574058647434 -0.023123500292394 -0.034209026974355 -0.045870374261417 -0.057917846297645 -0.070359425013943 -0.08326732516367 -0.096452136717661 -0.10999355246732 -0.1243180608973 -0.13935876931958 -0.1549534477877 -0.17109140846144 -0.18803207493444 -0.20603154886156 -0.2250493516215 -0.24486897770548 -0.26543609229299 -0.286711071189 -0.30891110793022 -0.23240095559634 -0.2059834778644 -0.18106172361251 -0.15752841758236 -0.13539315095621 -0.11468237002923 -0.095381409197842 -0.077443690997953 -0.060773140535977 -0.045323593927894 -0.031099382302585 -0.018105132008667 -0.0061663841288775 0.0046953584261512 0.014653121035674 0.023772673879302 0.032069480250074 0.039619164457644 0.046525682803203 0.052759265133473 0.058476841994295 0.063678835608512 0.068433934597029 0.072814955095213 0.076853231142704 0.080523112918665 0.083898089085562 0.086923223228668 0.089614418860586 0.092122884184363 0.094452974763116 0.096695514473943 0.098895300894566 0.10094564614851 0.10279995340356 0.10454496758617 0.10638519432253 0.10814064903085 0.10976586329696 0.11128620122422 0.11267254635381 0.11383279363439 0.1147800487208 0.11553274756165 0.11624099629857 0.11678895503864 0.11697440144495 0.11687452833813 0.11655246831985 0.11596833057839 0.11522651625543 0.11447589704128 0.11380117569642 0.11315968844294 0.11272986434493 0.11239548491008 0.11198254749904 0.111491552668 0.11092276499637 0.11023693718439 0.10936240494603 0.10831558799156 0.10717361493288 0.10568780889027 0.10380366857852 0.10147689741098 0.098728435252839 0.095446345256382 0.091645531507898 0.087269435936924 0.082253817245197 0.076566072347436 0.070322060598753 0.063536595648999 0.056248870812681 0.048432703005271 0.040055322281171 0.031153857286207 0.021848902563698 0.012068074347483 0.0018174465611888 -0.0088227832526152 -0.020008312285821 -0.031775833289913 -0.043938756845793 -0.056504744810922 -0.06952483474275 -0.082853662448538 -0.096528300857632 -0.11099137150235 -0.12618369278231 -0.14195606122341 -0.15826554612671 -0.17538992113289 -0.1935869896175 -0.21282308760784 -0.23287716869591 -0.25367506518972 -0.27518608333189 -0.29759889604504 -0.22077535599452 -0.19408651065038 -0.16890245841641 -0.14513383821121 -0.1227733393767 -0.10186532044934 -0.082386769999552 -0.064285324466451 -0.047467057575998 -0.031888021827943 -0.017554432575033 -0.0044572149918803 0.0075618148622799 0.018503325381964 0.028531349647829 0.037718787171988 0.046074450774121 0.053695314156898 0.060639895294865 0.066927338259234 0.072684252698487 0.077929854637491 0.082715230640955 0.087140942022347 0.091204861862816 0.094910672889836 0.098300331340476 0.10133825491416 0.10402732147974 0.10655378086232 0.10889018608778 0.11113216864146 0.11332937870956 0.11538072253505 0.11722659553776 0.11898080776048 0.12081633173075 0.1225700007786 0.12419073179337 0.12570339588687 0.12707863531942 0.12824069246173 0.12916780647157 0.12990412218889 0.13059690986772 0.13114284801968 0.13132220716055 0.13123507471635 0.13091142560371 0.13033581383706 0.12960804216643 0.12887182623005 0.12821270205299 0.12760565608344 0.12719508271925 0.12690411528927 0.12654151292593 0.12609813365858 0.12557772824727 0.12496767068432 0.12414703462022 0.12314967021601 0.12205280187789 0.12061495013711 0.11876282134842 0.11648563454029 0.11376713049858 0.11050851222837 0.10671219189396 0.10233749674918 0.097302253845216 0.091607680120431 0.085329372353556 0.078510153537314 0.071180683522845 0.063321503899343 0.05487315169823 0.045902920015771 0.036523556458263 0.026670252506725 0.016334064986158 0.0056047902028145 -0.0056851225542747 -0.017558802239093 -0.029841997320042 -0.042525921165695 -0.055659920888154 -0.069131543981792 -0.082943466426882 -0.097547174511848 -0.11289632050167 -0.12884344582132 -0.14532723865772 -0.16263594994184 -0.18103896863885 -0.20049787751926 -0.2207911275096 -0.24182423179944 -0.26357269800669 -0.28620599748053 -0.20906757856943 -0.18210272468471 -0.15665224724433 -0.13264292546877 -0.11005615947945 -0.088944859521164 -0.069289703172385 -0.051021320503878 -0.034055924883611 -0.01834675954726 -0.0039050114662865 0.0092955988877193 0.021396136226787 0.032416197958071 0.042515257248657 0.051771702134288 0.060185845154887 0.06787827521555 0.074860046536121 0.081202415928742 0.08699845229813 0.092288710812638 0.097106741006657 0.10157909660228 0.10566599187323 0.1094065523194 0.11281584126002 0.11586428810764 0.11855564170343 0.12109768058282 0.12344122096583 0.12568138540947 0.12787382576152 0.12992641741503 0.13176924955133 0.13352935682928 0.13535673088349 0.1371065626268 0.13872509876488 0.14022974618839 0.14159607375172 0.14275258850005 0.14366216579288 0.14437961798109 0.14505552758507 0.14559651454945 0.1457748606484 0.14569438666742 0.14537156122765 0.14480359507615 0.14409300434893 0.14337246356746 0.14272950605075 0.14215483652794 0.14176701077532 0.14151713769344 0.14120867293414 0.1408129327766 0.14034499000978 0.13981122304593 0.13904745129848 0.13810165254544 0.13704914228034 0.135663868528 0.13384587942035 0.13161639699267 0.12892684588223 0.12569375501602 0.12190180447846 0.11753183803185 0.11247593996391 0.10677518933742 0.10045963249151 0.093610969219346 0.086234543848389 0.078333706335978 0.069818153372494 0.060777113521338 0.051321615700671 0.04139546301083 0.030973053943532 0.02015543383936 0.0087614514551852 -0.0032190444560038 -0.015624849033093 -0.02842317225403 -0.041677292582975 -0.055287646004942 -0.069237407753914 -0.083988479543574 -0.099493252453984 -0.11561614015169 -0.13227997077159 -0.14977401354802 -0.16838417832849 -0.1880749487191 -0.20860689620678 -0.22988226813148 -0.25186994276921 -0.27473202841696 -0.19727786075861 -0.17003226727901 -0.14431111769795 -0.12005629109299 -0.097240387881338 -0.075924519139662 -0.056089032834247 -0.03765346606876 -0.020536600177191 -0.0046973986523704 0.0098494774445838 0.023153555385704 0.035334682715774 0.046434991352961 0.056609123863613 0.06593111059484 0.074406920626011 0.082166230589101 0.089187276392054 0.095584944744845 0.10142286276133 0.10675757452874 0.11161052082497 0.11612494827504 0.12023494396763 0.12401048882273 0.12744169232387 0.13049973350935 0.13319828171385 0.13575662542928 0.13810749707423 0.14034514434835 0.14252682609404 0.14458313790693 0.1464296740467 0.14819059796861 0.15000908057595 0.15176060739091 0.15337146476605 0.15486268530648 0.15623026435637 0.15737141150679 0.15826282921992 0.15896706337839 0.15962131297624 0.16015093016062 0.16033863897342 0.16025940715488 0.15993470637378 0.15937430793418 0.15868568400904 0.15797919639265 0.15735861153367 0.15681219889852 0.15644323969976 0.15623966211748 0.15599219801735 0.15564170346549 0.15523229152624 0.15477047060678 0.1540609178004 0.15317634440143 0.15217082176143 0.15083695357016 0.14905707602995 0.14686545453029 0.14420849334965 0.14100531174708 0.1372239920476 0.13285422877688 0.1277808761227 0.12206604178515 0.1157142875454 0.1088367999563 0.10141860455267 0.093476378396149 0.084895574656999 0.07577815206932 0.066245184100733 0.056241825341197 0.045736896051182 0.034830782164764 0.023336879418915 0.011246072194171 -0.001279436201677 -0.014200855233051 -0.027576067521591 -0.041319885177168 -0.055408283927548 -0.070310371663232 -0.085969708983779 -0.10227492243267 -0.11912299418451 -0.13680165352576 -0.15562108353849 -0.17554441954995 -0.19632301471432 -0.21784874823637 -0.24007835592249 -0.2631765528326 -0.18540616913562 -0.15787498076887 -0.13187819480289 -0.1073748809701 -0.084324789849962 -0.062802455262374 -0.04278361919613 -0.024182297156678 -0.0069112503965833 0.0090574801867055 0.02371209173829 0.037115934688451 0.049379956248141 0.060558916436443 0.070812578864906 0.080198822525594 0.08874006039344 0.096559040615067 0.10362315580624 0.11007435290639 0.11595795630621 0.1213339831724 0.12622837311792 0.1307816326074 0.1349154598177 0.13872969046918 0.14217967692902 0.14524721444112 0.14795672457395 0.15053097446558 0.1528920509823 0.15512351988785 0.15729507517858 0.15935305032195 0.16120813612444 0.16296889641087 0.16477687881838 0.16652842999166 0.16812984743991 0.16961022348153 0.17097674291041 0.17210119418656 0.17297447451514 0.17366309139223 0.17429542553401 0.17480961512071 0.17501247458413 0.17493051617147 0.17460506317064 0.17405198152075 0.17338527058313 0.17269522762481 0.17209418154382 0.17158107901488 0.17122958634053 0.17107607328942 0.17088992321833 0.17058768106339 0.17023602301618 0.16984697259467 0.16919179096568 0.16837508632972 0.16741765794556 0.16613395588223 0.16439475129416 0.1622403792374 0.15961418247598 0.15644205144901 0.15267604797155 0.14830432133667 0.1432171109043 0.13748311635473 0.13109447559106 0.12418948558319 0.11673734324113 0.10874306674512 0.10010026594474 0.090907999285242 0.081291003095027 0.071213792933453 0.060630290930409 0.049631532656471 0.038040929112821 0.025838643656297 0.013192002529529 0.00015216534978914 -0.01334608972235 -0.027229020566028 -0.04145626438478 -0.056506906729309 -0.07232981525136 -0.088813966221933 -0.10584990584482 -0.12371854023726 -0.14275004530354 -0.16290591768355 -0.18394312516868 -0.20571912239569 -0.22820096862098 -0.25153914744346 -0.17345234114503 -0.14563004365781 -0.11935302920133 -0.094598243070926 -0.071310845799347 -0.049577843172271 -0.029374376505098 -0.01060625321514 0.0068202251300001 0.022918586860806 0.037680285160906 0.051183797891012 0.063536238668218 0.074789050790571 0.085123381407463 0.094574329559131 0.10318180743907 0.11105745013124 0.11817117088258 0.12467203309014 0.13060295075708 0.1360223907666 0.14095968364547 0.1455490562312 0.14971377287369 0.15356068907406 0.15702849172868 0.16010833518079 0.16283335201011 0.16542513675124 0.16779349915374 0.17001757995517 0.17217945570613 0.17424109942332 0.17610244694865 0.17786623235929 0.17966472602179 0.18140928943711 0.18300057619 0.18447533797093 0.18583705594369 0.18695190506147 0.18780412251696 0.18846882565605 0.18907878865968 0.18958009146273 0.18979650418714 0.18971439470462 0.1893878139584 0.18884054101987 0.18818870577729 0.18752088664277 0.18693814579381 0.18646346372051 0.18613998110085 0.18602798039076 0.18589633263262 0.18565369999722 0.18536140451065 0.18504737130628 0.1844534673245 0.18369303147333 0.18278248930167 0.18155578886389 0.17985975092744 0.1777456361726 0.17515479694972 0.17200506204133 0.16825219508569 0.16388083479512 0.15878509971416 0.15302935980485 0.14660914799829 0.13966761540392 0.13218283190267 0.12413928253206 0.11543544529365 0.10616988844116 0.09646865181553 0.086311891771881 0.075648611483566 0.064559631271396 0.052872575257871 0.040563255959799 0.027796505623718 0.014632640156283 0.0010077328095999 -0.013013292535831 -0.027382256872641 -0.042573426732264 -0.058573865439328 -0.07523335770131 -0.092460443291052 -0.11052376120898 -0.12977096322653 -0.15015716241315 -0.17146824722645 -0.19349697504758 -0.21623452469601 -0.23981937709723 -0.16141623802694 -0.13329568933495 -0.10673589331214 -0.081723828262005 -0.058197307365567 -0.036251561275285 -0.015861234642163 0.0030755221829623 0.020657019015474 0.036887653442504 0.0517560223296 0.065357576990567 0.077799389436096 0.089125898492594 0.099543488314425 0.10905918233543 0.1177327009257 0.12566245174288 0.13282998462461 0.13937999468221 0.14536539307355 0.15082614056788 0.15580577323386 0.16042806395176 0.16462663933748 0.16850436465038 0.17199577936163 0.17508520070327 0.17782750593483 0.18043727835845 0.18281294551751 0.18502543697518 0.18718520883722 0.1892492294904 0.19111689338637 0.19288547893964 0.19466850493329 0.19640777406729 0.19799121234694 0.19945955456996 0.20081411494645 0.20192073876387 0.20274761144066 0.20338597412293 0.20397746414979 0.20446618247013 0.2046948924166 0.2046155485984 0.20428191515314 0.20374131998314 0.20310472589459 0.20245663981097 0.2018965761733 0.20146239880018 0.20116181454254 0.20109325044297 0.20102394876266 0.20083960757278 0.20061229422809 0.200372979573 0.19984118458842 0.19913426942337 0.19827855366691 0.19710672736588 0.19545754270381 0.19338752355044 0.19082312392341 0.18769564669125 0.1839600929334 0.17959048015727 0.17448841827759 0.16871007332876 0.16225508660502 0.15527349237427 0.14776258930157 0.13966156236822 0.13090164412933 0.12156343106857 0.11177731946313 0.10153826228091 0.090795020282566 0.079613983177341 0.067832358352222 0.05541970992739 0.042534872827525 0.029245838885089 0.015487995244473 0.0013270933325783 -0.013183910271118 -0.028516612205787 -0.044694302797309 -0.061535051618022 -0.078953425954142 -0.097217190069455 -0.11668360940696 -0.13730529698538 -0.15889037766305 -0.18118378076339 -0.20418086825941 -0.22801679695743 -0.14929743512834 -0.12087338821063 -0.094026181551449 -0.068752217683833 -0.044982756581363 -0.022823133050412 -0.0022442666108187 0.016864356039868 0.034602047242959 0.050964286828325 0.065939795288906 0.079638048095229 0.092168458921643 0.10357084726919 0.11407336399679 0.12365207181552 0.13239319887229 0.14037665184971 0.14760002991746 0.15419908107845 0.16024298101625 0.16574236933488 0.17076390564027 0.17541993113214 0.17965255347169 0.18356309036359 0.18708204251446 0.19018128135283 0.19294164484549 0.19556607764321 0.19794572917245 0.20015010421782 0.2023129434149 0.20437816432853 0.20624902116493 0.2080242501791 0.20979046045783 0.21153038735916 0.21310458785614 0.21455817489237 0.21590207103478 0.21700412023604 0.2178035364449 0.21842369530189 0.21899493630888 0.21946425754059 0.21970130714593 0.21962543955684 0.21928616398539 0.21875674244394 0.21813920257605 0.21750146222857 0.21696469814993 0.21656761983137 0.21629882728121 0.21627790738202 0.21627151770439 0.21614335708232 0.21598617287654 0.2158154265497 0.21535396444633 0.21470668021772 0.21390693072978 0.21278406933579 0.2111857723978 0.20915592412332 0.20662133540671 0.20351996061503 0.19979855862794 0.19542822244751 0.19032407068091 0.18451953789849 0.17803543694086 0.17101187679378 0.16347012362935 0.15531306710598 0.14650150956855 0.13708788463563 0.12721546360057 0.11689500414413 0.10606619688176 0.094797348126762 0.08292774637416 0.070406547576519 0.057405698090252 0.043989500569542 0.030091967899929 0.0157964827502 0.0011416825428386 -0.014336460718146 -0.030692060676425 -0.047717518543404 -0.065332520649962 -0.083794287873941 -0.1034847091708 -0.12435195641021 -0.1462090838682 -0.16877679502399 -0.19203965875833 -0.21613092073665 -0.13709512654843 -0.10836218668774 -0.081222841385645 -0.055682551936722 -0.031667453783373 -0.0092889148035859 0.011480294084119 0.030764026607821 0.048657137175969 0.065149954831688 0.080230915412245 0.094029927724558 0.10664864026509 0.11813028200233 0.12871312122312 0.13835683010399 0.14716474050099 0.15520301708943 0.16248799454034 0.16913698571262 0.17523438045146 0.18077390004567 0.18583964689838 0.19052540155086 0.1948022256251 0.19874207435544 0.20228684346505 0.20539850694265 0.20818106883743 0.21081134615087 0.21320300419517 0.21539990155468 0.21756159523547 0.21963297547659 0.2215079529191 0.22327715239743 0.22504085215177 0.2267783010884 0.22833842941224 0.22977898179126 0.23110946081412 0.23219540550793 0.23297869710967 0.2335802778038 0.23412847568434 0.23458651501832 0.23482269395113 0.23474195622441 0.2344079635923 0.23388772038973 0.23328587598504 0.23266668413153 0.23215177093404 0.23178391161961 0.23156244672416 0.23158215362531 0.23163603699298 0.23157117235624 0.23148269173209 0.23137430817097 0.23100032569508 0.23040819257017 0.2296623967282 0.22859956147538 0.22704763328211 0.22505290769071 0.22256006416155 0.21947644238953 0.21576773052766 0.21140241483439 0.20628989336979 0.20046199990536 0.1939535985751 0.18688305137756 0.17931048494025 0.17110681654554 0.16223741728426 0.1527477582749 0.14279019697566 0.13238401091767 0.12146855158406 0.11011878821729 0.098158127776777 0.085527661040841 0.072410090910475 0.058864959129324 0.044828093370395 0.030404324345386 0.015603606352307 -3.102270344029e-05 -0.016563051737543 -0.033775013750697 -0.051590407104552 -0.070256030690142 -0.090167664574682 -0.11129002179248 -0.1334275805212 -0.1562712511686 -0.17980663158159 -0.20416007179302 -0.12480812410176 -0.095758679572381 -0.068324427740494 -0.04251025118027 -0.01824984246166 0.0043507858355557 0.025314668763967 0.044772026296545 0.062821560221714 0.079447826123465 0.09463497127023 0.10853143953394 0.12124168303388 0.13280049391489 0.14346282287982 0.15317631946008 0.16204824270848 0.1701434245301 0.17749419779302 0.18419397291516 0.19034419020999 0.19592919324754 0.20103696279593 0.20575111607745 0.21007458653593 0.21404527368027 0.21761623521484 0.2207393475016 0.22354534089036 0.22617847554857 0.22858661725356 0.23078097758306 0.23293613734872 0.2350161266785 0.23689418078686 0.23865418951874 0.24041437219874 0.24214942292813 0.24369686941843 0.24512449150904 0.24643808634408 0.24750460363288 0.24827248429528 0.24885469464173 0.24937867646795 0.24982872191694 0.25006475367692 0.24997453079438 0.24964830447187 0.24913693628452 0.2485518423401 0.24795482887434 0.24746158140168 0.24712038458781 0.24694644111765 0.24700916016907 0.24712146338666 0.24713172928795 0.24710825268398 0.24705941387599 0.24677512138609 0.24623668335567 0.24554945543587 0.24455231492923 0.24304743002205 0.24108398527932 0.23863459549115 0.23556656424292 0.23187025907842 0.22751658962635 0.22239333484427 0.21653904255278 0.21000792011135 0.20288889106101 0.19528671647734 0.18704628669512 0.17811077704846 0.16853978832859 0.15850159470545 0.14800886410487 0.13700445737042 0.12557798812317 0.11352176956376 0.1007870847335 0.087551836565774 0.073873882051616 0.059700126514512 0.045143488224945 0.030194384645371 0.01440054351797 -0.0023059104977526 -0.019708590454619 -0.037727020647144 -0.056596711993885 -0.076736685884476 -0.098121376047218 -0.12054140056095 -0.14366963057186 -0.16748374628711 -0.19210207763842 -0.11243499216919 -0.083063118011825 -0.055329275619812 -0.029233329810206 -0.0047281623533674 0.018098038805885 0.039260999066525 0.058893284746901 0.077096346969054 0.093857839361941 0.10915366961011 0.12314418718624 0.13594745692674 0.14758143444284 0.15832419408708 0.16811030514325 0.1770466463816 0.18520029189422 0.1926171540522 0.19937201110304 0.20556956075179 0.21120425741326 0.21635681178942 0.22110125141395 0.22546733603295 0.22947024952697 0.23306469892332 0.23620275734326 0.23903605375697 0.24167455272204 0.24409261045851 0.24629057713648 0.24844266300844 0.25052874232065 0.25240630521285 0.25416467675725 0.25591226051631 0.25764415573324 0.2591