# vtk DataFile Version 3.0
d-2__ created by libgimli-v1.5.0-1-g5991b6ac
ASCII
DATASET UNSTRUCTURED_GRID
POINTS 257 double
25.5	-0.25	0
25.643267391024	-0.375	0
25.690940791558	-0.19094079155751	0
28.625	-0.27380702240065	0
28.625	-0.13804348840204	0
28.518663902413	-0.18940103023301	0
28.458333333333	-0.087886572211468	0
28.416666666667	0	0
28.375	-0.13804348840204	0
28.291666666667	-0.087886572211468	0
28.333333333333	0	0
28.25	0	0
26.083333333333	0	0
26.041666666667	-0.13804348840203	0
26.125	-0.087886572211466	0
26.166666666667	0	0
26	0	0
26.708333333333	-0.13804348840203	0
26.666666666667	0	0
26.625	-0.087886572211466	0
26.208333333333	-0.07357428207177	0
26.75	0	0
26.791666666667	-0.087886572211464	0
26.333333333333	0	0
26.25	0	0
26.291666666667	-0.087886572211468	0
27.166666666667	0	0
27.208333333333	-0.07357428207177	0
27.25	0	0
26.416666666667	0	0
26.375	-0.13804348840204	0
26.458333333333	-0.087886572211468	0
27.291666666667	-0.087886572211468	0
27.333333333333	0	0
27.625	-0.13804348840204	0
27.518663902413	-0.18940103023301	0
27.625	-0.27380702240065	0
26.583333333333	0	0
28.916666666667	0	0
28.833333333333	0	0
28.875	-0.13804348840204	0
26.833333333333	0	0
26.875	-0.07357428207177	0
29.98747163413	-0.5056358037932	0
30.050519698408	-0.25547676721966	0
29.843533331918	-0.29816134131379	0
29.458333333333	-0.087886572211464	0
29.404607252882	-0.15094638411797	0
29.541666666667	-0.13804348840203	0
26.5	0	0
27.791666666667	-0.087886572211468	0
27.833333333333	0	0
27.75	0	0
27.231336097587	-0.18940103023302	0
27.125	-0.13804348840204	0
25.705488373266	-0.59091608366499	0
26.007921013115	-0.8717186506847	0
25.91135296792	-0.47048281487414	0
30.166666666667	0	0
30.208333333333	-0.087886572211464	0
30.25	0	0
27	0	0
26.916666666667	0	0
26.958333333333	-0.13804348840203	0
30.791666666667	-0.087886572211468	0
30.833333333333	0	0
30.75	0	0
27.041666666667	-0.087886572211464	0
27.083333333333	0	0
30.083333333333	0	0
30.125	-0.07357428207177	0
28.541666666667	-0.073574282071767	0
27.375	-0.13804348840204	0
27.416666666667	0	0
27.5	0	0
27.458333333333	-0.087886572211468	0
28.583333333333	0	0
28.666666666667	0	0
28.226291378505	-0.21877391554365	0
28.432011579996	-0.40775209656411	0
30.148002764253	-0.18940103023303	0
30.208717134119	-0.38392172835888	0
30.291666666667	-0.13804348840203	0
28.208333333333	-0.07357428207177	0
28.166666666667	0	0
28.125	-0.072182208352023	0
27.875	-0.13804348840204	0
26.237940586216	-0.15094638411797	0
27.916666666667	0	0
27.708333333333	-0.07357428207177	0
28.083333333333	0	0
28	0	0
28.041666666667	-0.13804348840203	0
26.190375288162	-0.21877391554366	0
27.958333333333	-0.087886572211464	0
26.541666666667	-0.073574282071767	0
26.571273919549	-0.15094638411796	0
26.317063962986	-0.25702488420529	0
27.541666666667	-0.073574282071767	0
28.5	0	0
29.583333333333	0	0
29.625	-0.087886572211466	0
28.791666666667	-0.087886572211468	0
26.203594889612	-0.40391444725954	0
27.583333333333	0	0
27.666666666667	0	0
28.75	0	0
28.958333333333	-0.087886572211464	0
29	0	0
29.041666666667	-0.13804348840203	0
28.708333333333	-0.07357428207177	0
29.083333333333	0	0
29.125	-0.087886572211466	0
29.166666666667	0	0
29.208333333333	-0.13804348840203	0
29.25	0	0
28.165334880767	-0.15260258505374	0
29.291666666667	-0.087886572211464	0
27.731336097587	-0.18940103023302	0
29.5	0	0
29.416666666667	0	0
29.333333333333	0	0
29.375	-0.07357428207177	0
29.666666666667	0	0
28.086941669094	-0.2859797646022	0
27.958333333333	-0.18219221742147	0
29.125	-0.18219221742148	0
29.228873378537	-0.27753669533404	0
29.708333333333	-0.07357428207177	0
29.041666666667	-0.23876614697008	0
28.958333333333	-0.18219221742147	0
29.833333333333	0	0
29.875	-0.13804348840204	0
29.916666666667	0	0
29.791666666667	-0.087886572211468	0
29.75	0	0
29.958333333333	-0.087886572211464	0
30	0	0
29.483730629652	-0.25702488420531	0
30.333333333333	0	0
30.375	-0.087886572211466	0
29.369620976373	-0.40603607246707	0
29.604159114629	-0.34842263547806	0
31.124752694808	-0.11296503030675	0
31	0	0
30.958333333333	-0.087886572211468	0
30.041666666667	-0.13804348840203	0
30.416666666667	0	0
30.458333333333	-0.07357428207177	0
30.875	-0.13804348840204	0
30.583333333333	0	0
30.541666666667	-0.13804348840203	0
30.625	-0.087886572211466	0
30.5	0	0
30.43533056908	-0.18940103023302	0
30.916666666667	0	0
30.385963434616	-0.36114994877356	0
30.708333333333	-0.07357428207177	0
30.666666666667	0	0
29.636111778917	-0.20065391017952	0
30.999752694808	-0.25100851870879	0
28.731336097587	-0.18940103023302	0
26.851997235747	-0.18940103023303	0
30.737940586216	-0.15094638411797	0
26.523708621495	-0.21877391554365	0
27.133853031742	-0.25547676721968	0
26.949480301592	-0.25547676721966	0
27.041666666667	-0.52911283384145	0
27.041666666667	-0.18219221742147	0
29.357041954828	-0.21877391554366	0
29.737940586216	-0.15094638411797	0
30.690375288162	-0.21877391554366	0
29.958333333333	-0.18219221742147	0
25.875	-0.11303967622539	0
25.75	0	0
26.650397296319	-0.25702488420526	0
27.292050467453	-0.38392172835888	0
27.414390113348	-0.63321254312708	0
27.469144028345	-0.36097200963104	0
27.848127708251	-0.28948918465343	0
28.848127708251	-0.28948918465343	0
28.726596951268	-0.4234584073117	0
29.731548923005	-0.26700761442393	0
30.817063962986	-0.25702488420529	0
26.031958747178	-0.33325463579056	0
26.523689393121	-0.44776195923934	0
29.184065504659	-0.43422319923747	0
29.545209981036	-0.61464357222601	0
30.552290248164	-0.29580321144285	0
31.25	0	0
26.800529041383	-0.37028063139366	0
29.130694908432	-0.28024272799092	0
28.907115884997	-0.43487734236883	0
31.5	-0.5	0
31.5	-0.25	0
31.356886217184	-0.375	0
31.308843572405	-0.19115642759521	0
31.5	0	0
27.681768476189	-0.55823447719905	0
29.041897355025	-0.3545575021244	0
28.950100433703	-0.28398118611486	0
29.746371622197	-0.43057135368151	0
29.045779100149	-0.5143168838031	0
27.615347366628	-0.83560735755964	0
27.971649595913	-0.56775148091581	0
28.235269600634	-0.41546210057925	0
28.346412380513	-0.73751448832674	0
28.007726950717	-0.98664640296265	0
26.322202955504	-0.72835150504623	0
29.798122080496	-0.68908130839227	0
30.703430397599	-0.40445925111313	0
30.914859484231	-0.44990795630246	0
29.247599241801	-0.70334449364573	0
31.053928463665	-0.58159990549132	0
31.221377875989	-0.67457110982012	0
31.225195424337	-0.49586438948828	0
30.530720924191	-0.4852517756918	0
30.323984230706	-0.57992151527177	0
25.84485407481	-1.2957460393421	0
25.743909551686	-0.8528010586154	0
30.746070739038	-0.72060716412098	0
29.604860290622	-0.8788438191921	0
29.043947453281	-1.1807973577914	0
29.54268225478	-1.3246684327942	0
29.849430697053	-0.99522786547226	0
30.043693421774	-0.75311160759413	0
28.849047319116	-0.69970565535729	0
31.000856094841	-0.87446921301307	0
31.5	-1	0
25.845623228308	-0.30002188546398	0
30.512369350266	-0.71824350459	0
30	-1.6666666666667	0
30.051778272566	-1.3024535658708	0
25.5	0	0
27.680522574649	-1.2514855461386	0
27.375	-1.6666666666667	0
27.75	-1.6666666666667	0
31.174325422113	-0.32450830281231	0
25.5	-0.5	0
26.747329141204	-0.71351083399284	0
25.5	-0.75	0
26.348572023727	-1.2023161679924	0
27.179597305363	-1.0673000334922	0
29.25	-1.6666666666667	0
25.5	-1	0
30.75	-1.6666666666667	0
31.013091550828	-1.3141602648437	0
30.625304590967	-1.106556793762	0
30.375	-1.6666666666667	0
30.189043391347	-0.96114657873573	0
28.064690440023	-1.391571216678	0
28.426745644615	-1.201505510398	0
25.5	-1.6666666666667	0
27	-1.6666666666667	0
26.25	-1.6666666666667	0
28.5	-1.6666666666667	0
31.5	-1.6666666666667	0
CELLS 429 1716
3	0	1	2	
3	3	4	5	
3	6	7	8	
3	9	10	11	
3	12	13	14	
3	14	15	12	
3	16	13	12	
3	17	18	19	
3	20	15	14	
3	7	10	8	
3	21	17	22	
3	23	24	25	
3	26	27	28	
3	29	30	31	
3	23	30	29	
3	28	32	33	
3	34	35	36	
3	19	18	37	
3	38	39	40	
3	22	41	21	
3	41	22	42	
3	43	44	45	
3	18	17	21	
3	46	47	48	
3	31	49	29	
3	50	51	52	
3	53	27	54	
3	55	56	57	
3	58	59	60	
3	61	62	63	
3	64	65	66	
3	67	68	61	
3	67	61	63	
3	69	70	58	
3	4	71	5	
3	72	73	33	
3	5	6	8	
3	74	73	75	
3	73	72	75	
3	76	4	77	
3	78	79	8	
3	80	81	82	
3	83	84	85	
3	50	86	51	
3	25	87	30	
3	86	88	51	
3	52	89	50	
3	90	91	92	
3	93	87	14	
3	94	92	91	
3	95	49	31	
3	9	8	10	
3	84	83	11	
3	19	95	96	
3	91	88	94	
3	25	30	23	
3	9	11	83	
3	97	30	87	
3	98	74	75	
3	99	71	76	
3	100	48	101	
3	33	32	72	
3	99	7	6	
3	41	42	62	
3	102	40	39	
3	71	99	6	
3	97	93	103	
3	104	34	105	
3	39	106	102	
3	74	98	104	
3	38	107	108	
3	107	109	108	
3	35	75	72	
3	106	110	102	
3	34	98	35	
3	28	27	32	
3	111	112	113	
3	109	111	108	
3	59	82	60	
3	113	114	115	
3	116	9	83	
3	114	117	115	
3	50	89	118	
3	119	120	46	
3	119	48	100	
3	110	106	77	
3	120	121	122	
3	89	52	105	
3	101	123	100	
3	124	92	125	
3	54	26	68	
3	114	126	127	
3	101	128	123	
3	129	109	130	
3	131	132	133	
3	134	131	135	
3	48	119	46	
3	115	117	121	
3	136	137	133	
3	47	138	48	
3	60	82	139	
3	82	140	139	
3	141	142	138	
3	143	144	145	
3	122	47	46	
3	146	137	136	
3	113	112	114	
3	134	132	131	
3	147	140	148	
3	149	65	64	
3	150	151	152	
3	150	153	151	
3	148	154	151	
3	147	148	153	
3	65	149	155	
3	59	58	70	
3	155	145	144	
3	82	81	156	
3	145	155	149	
3	146	69	137	
3	157	158	152	
3	154	140	82	
3	147	139	140	
3	101	48	159	
3	149	160	145	
3	102	110	161	
3	150	152	158	
3	42	22	162	
3	157	163	64	
3	5	71	6	
3	4	76	71	
3	85	84	90	
3	116	83	85	
3	96	31	164	
3	49	95	37	
3	15	20	24	
3	25	20	87	
3	14	13	93	
3	25	24	20	
3	165	166	167	
3	63	168	67	
3	54	68	67	
3	17	162	22	
3	63	62	42	
3	35	98	75	
3	34	104	98	
3	26	54	27	
3	63	42	162	
3	88	86	94	
3	125	94	86	
3	105	34	89	
3	118	89	34	
3	77	4	110	
3	161	110	4	
3	111	109	112	
3	126	112	109	
3	47	117	169	
3	120	122	46	
3	38	40	107	
3	130	107	40	
3	121	117	122	
3	117	114	169	
3	80	70	146	
3	123	128	135	
3	134	128	170	
3	159	48	138	
3	134	135	128	
3	163	152	171	
3	158	157	66	
3	154	148	140	
3	151	153	148	
3	69	146	70	
3	172	44	146	
3	9	78	8	
3	161	40	102	
3	90	92	85	
3	116	78	9	
3	92	94	125	
3	5	79	3	
3	164	31	30	
3	19	37	95	
3	173	16	174	
3	164	175	96	
3	17	19	96	
3	53	165	176	
3	53	32	27	
3	118	86	50	
3	175	17	96	
3	176	177	178	
3	118	36	179	
3	78	116	124	
3	180	3	181	
3	169	114	127	
3	114	112	126	
3	134	170	132	
3	133	132	136	
3	44	80	146	
3	146	136	172	
3	82	59	80	
3	152	151	171	
3	64	66	157	
3	80	59	70	
3	64	163	149	
3	170	101	159	
3	136	132	172	
3	85	92	116	
3	124	116	92	
3	97	164	30	
3	166	168	63	
3	14	87	20	
3	87	93	97	
3	117	47	122	
3	47	169	138	
3	101	170	128	
3	142	182	159	
3	132	45	172	
3	149	163	183	
3	31	96	95	
3	162	166	63	
3	184	93	13	
3	97	185	164	
3	156	154	82	
3	141	127	186	
3	142	141	187	
3	44	172	45	
3	152	163	157	
3	163	171	183	
3	103	93	184	
3	53	72	32	
3	154	188	151	
3	189	144	143	
3	185	175	164	
3	175	190	162	
3	118	179	86	
3	125	179	124	
3	109	107	130	
3	126	129	191	
3	161	180	40	
3	127	126	191	
3	169	141	138	
3	141	169	127	
3	125	86	179	
3	180	181	192	
3	193	194	195	
3	196	194	197	
3	149	183	160	
3	143	145	160	
3	167	176	165	
3	162	17	175	
3	198	178	177	
3	72	53	176	
3	118	34	36	
3	185	97	103	
3	126	109	129	
3	186	191	199	
3	180	130	40	
3	130	180	200	
3	161	4	3	
3	129	199	191	
3	138	142	159	
3	45	182	201	
3	130	200	129	
3	192	202	199	
3	202	186	199	
3	129	200	199	
3	142	187	201	
3	191	186	127	
3	180	192	200	
3	199	200	192	
3	180	161	3	
3	142	201	182	
3	54	67	168	
3	203	204	198	
3	79	5	8	
3	78	124	205	
3	182	170	159	
3	151	188	171	
3	185	190	175	
3	204	206	205	
3	201	43	45	
3	43	81	44	
3	207	206	204	
3	57	56	208	
3	44	81	80	
3	209	201	187	
3	35	72	178	
3	57	208	103	
3	13	16	173	
3	183	210	211	
3	141	212	187	
3	45	170	182	
3	213	214	215	
3	205	79	78	
3	216	156	217	
3	45	132	170	
3	196	197	189	
3	218	56	219	
3	178	198	36	
3	188	156	216	
3	220	211	210	
3	57	103	184	
3	204	179	198	
3	165	53	54	
3	221	222	223	
3	209	224	225	
3	43	217	81	
3	226	212	202	
3	214	227	228	
3	211	160	183	
3	210	171	188	
3	226	192	181	
3	193	215	214	
3	3	79	181	
3	205	206	79	
3	186	212	141	
3	212	186	202	
3	173	229	13	
3	167	177	176	
3	72	176	178	
3	206	226	181	
3	213	227	214	
3	217	230	216	
3	196	195	194	
3	231	232	223	
3	227	213	220	
3	206	181	79	
3	187	212	221	
3	173	174	2	
3	13	229	184	
3	174	233	2	
3	234	235	236	
3	196	189	143	
3	233	0	2	
3	160	237	143	
3	237	195	196	
3	1	0	238	
3	173	2	229	
3	177	203	198	
3	198	179	36	
3	239	190	185	
3	35	178	36	
3	192	226	202	
3	195	215	193	
3	188	216	210	
3	220	210	216	
3	213	237	211	
3	154	156	188	
3	124	179	204	
3	221	212	222	
3	240	219	55	
3	54	168	165	
3	196	143	237	
3	195	237	215	
3	55	1	238	
3	167	166	190	
3	2	1	229	
3	1	55	57	
3	190	166	162	
3	204	205	124	
3	241	208	56	
3	242	167	239	
3	223	222	243	
3	156	81	217	
3	160	211	237	
3	213	215	237	
3	183	171	210	
3	228	193	214	
3	219	244	218	
3	56	55	219	
3	184	229	57	
3	57	229	1	
3	220	213	211	
3	245	246	247	
3	230	220	216	
3	220	247	227	
3	248	247	232	
3	228	227	246	
3	55	238	240	
3	249	230	217	
3	247	249	232	
3	166	165	168	
3	221	209	187	
3	43	225	217	
3	209	43	201	
3	247	246	227	
3	190	239	167	
3	207	204	203	
3	208	185	103	
3	242	203	177	
3	207	250	251	
3	240	244	219	
3	252	218	244	
3	224	209	221	
3	217	225	249	
3	43	209	225	
3	241	242	239	
3	167	242	177	
3	253	242	241	
3	56	218	241	
3	212	226	222	
3	249	225	224	
3	234	250	207	
3	239	185	208	
3	231	223	243	
3	224	232	249	
3	252	254	218	
3	241	218	254	
3	253	241	254	
3	239	208	241	
3	206	207	251	
3	224	221	223	
3	223	232	224	
3	248	245	247	
3	234	207	203	
3	250	255	251	
3	251	226	206	
3	255	243	222	
3	249	247	230	
3	220	230	247	
3	203	242	234	
3	235	242	253	
3	255	222	251	
3	226	251	222	
3	232	231	248	
3	245	256	246	
3	228	246	256	
3	242	235	234	
3	234	236	250	
3	255	250	236	
CELL_TYPES 429
5 5 5 5 5 5 5 5 5 5 5 5 5 5 5 5 5 5 5 5 5 5 5 5 5 5 5 5 5 5 5 5 5 5 5 5 5 5 5 5 5 5 5 5 5 5 5 5 5 5 5 5 5 5 5 5 5 5 5 5 5 5 5 5 5 5 5 5 5 5 5 5 5 5 5 5 5 5 5 5 5 5 5 5 5 5 5 5 5 5 5 5 5 5 5 5 5 5 5 5 5 5 5 5 5 5 5 5 5 5 5 5 5 5 5 5 5 5 5 5 5 5 5 5 5 5 5 5 5 5 5 5 5 5 5 5 5 5 5 5 5 5 5 5 5 5 5 5 5 5 5 5 5 5 5 5 5 5 5 5 5 5 5 5 5 5 5 5 5 5 5 5 5 5 5 5 5 5 5 5 5 5 5 5 5 5 5 5 5 5 5 5 5 5 5 5 5 5 5 5 5 5 5 5 5 5 5 5 5 5 5 5 5 5 5 5 5 5 5 5 5 5 5 5 5 5 5 5 5 5 5 5 5 5 5 5 5 5 5 5 5 5 5 5 5 5 5 5 5 5 5 5 5 5 5 5 5 5 5 5 5 5 5 5 5 5 5 5 5 5 5 5 5 5 5 5 5 5 5 5 5 5 5 5 5 5 5 5 5 5 5 5 5 5 5 5 5 5 5 5 5 5 5 5 5 5 5 5 5 5 5 5 5 5 5 5 5 5 5 5 5 5 5 5 5 5 5 5 5 5 5 5 5 5 5 5 5 5 5 5 5 5 5 5 5 5 5 5 5 5 5 5 5 5 5 5 5 5 5 5 5 5 5 5 5 5 5 5 5 5 5 5 5 5 5 5 5 5 5 5 5 5 5 5 5 5 5 5 5 5 5 5 5 5 5 5 5 5 5 5 5 5 5 5 5 5 5 5 5 5 5 5 5 5 5 5 5 5 5 5 5 5 5 5 5 5 5 5 5 
CELL_DATA 429
SCALARS Coverage double 1
LOOKUP_TABLE default
1.6738018272088 2.5826510406219 3.0451400509847 3.3158112140623 2.4779677650742 2.8129685145569 2.9236398700682 2.8783083283598 2.7179920205497 3.1876747410635 2.8561963573884 3.151217434946 3.3666125342281 2.8188700049734 2.9220435922872 3.3927586465292 2.5592236697158 3.0348468829697 3.1625500925671 3.3731327964389 3.0334715740864 2.2386384494159 3.3404698157346 2.5986561644816 3.2462755714005 3.4590550325097 2.6733657842295 1.3391956199039 3.2753219714449 3.36816526295 2.9919648616846 3.4648570304047 2.9689085889217 3.1591677430389 2.7691902927794 3.0905516124755 2.8175029626116 3.1080861487131 2.8428418580021 3.1952234560851 2.485899199383 2.4227888346091 3.0239252747976 3.0766894836007 2.518053876344 3.1990828161052 3.0842976582893 3.4715059015808 2.452624359698 2.9343145259131 2.7873493529845 3.0088007146507 3.3125625014597 2.7138656368768 3.4049041131646 2.7094657649158 2.8703154979923 2.4007084551269 2.7510282488446 3.3275266851051 2.863962779377 3.0710943743215 3.3626149478463 3.1381014054573 3.0446802379797 2.9007398197368 2.1124563999404 3.1566149384129 3.4773014218183 3.1787164461026 3.5200566809265 3.040971070965 2.701815087062 3.078836184646 2.7540580060464 3.0377219520387 3.215903094594 3.4662235985202 2.8161289050722 3.2433285046668 2.7927811632532 3.2946104919906 2.8956724935699 3.0640368969723 3.0144147449602 3.5442788225098 3.038214950144 3.4669622437553 3.0585498905305 2.6557619829026 3.0350022102964 2.655151116619 3.0659408751272 2.7108166894597 3.0641377518308 3.3884421034345 2.6629258252011 3.4247721778818 3.4386969217885 2.5397568564808 3.206051204359 2.8687491609869 2.2889739445791 2.3272116876887 2.8013615334403 2.9542980413073 2.9610070092555 2.9459131741522 2.9964619851015 2.4989756833057 2.8010037892954 3.3491512813839 2.7136900069539 3.4246173023823 2.6425512714739 3.0396317119621 2.6032906141345 2.3057461293344 2.1498960443316 3.394052728041 2.7557295860494 2.6907229398162 3.0459256960612 2.6961174318219 2.0746478481178 2.9249141646524 2.92085744919 2.786574029759 2.510355462067 2.7742624646648 2.9986854090241 3.0889535999771 2.9176345937403 2.5458651382772 3.2838094683389 3.1495298595119 2.5829036909771 2.3249311370131 2.7024499378535 2.237176785483 2.7651696979366 2.9977507994514 2.695057553703 2.9609367350585 2.6412578691999 2.9124516314035 2.9351869158877 2.7202037629844 3.0394608166951 2.7966031656643 3.1071829308664 2.9187360762041 3.192912431424 2.9253223254454 3.0720044893421 2.8204601888783 2.9262256721359 2.9117524890133 3.072833399494 2.8293980850584 3.0387338906388 2.8701314689895 2.7970820008862 3.4056072786073 2.8460528017419 2.5719196064755 3.1731671828697 2.3824901553287 3.0519763304833 2.8017009374832 3.0315007800369 3.0255183414329 2.6173630612551 2.7558295894599 2.8071874329076 3.0242483534983 2.6982704765431 2.8377790907288 2.4110329565631 2.5462203012367 2.9290138914259 2.7620588668004 2.4108861481568 2.6757909905418 2.3689910181271 2.8093477535789 2.8270702155673 2.513423997809 2.0662853217408 2.5164695045901 2.556605894103 2.3493539925415 2.7337381467094 2.7486750628907 2.7813211668994 2.9926860194644 2.6017207186858 2.7885458283616 2.6529659892248 2.502108123289 2.6397029324564 2.8176556142924 2.4037293467347 2.8718358797574 2.7264605553813 2.8996578256676 2.7163357746154 2.3761076790942 2.5748092898389 2.5964309573971 2.2887741157446 3.050812606255 2.5838112304952 3.0593262248173 2.5059132164817 2.5455597506458 2.306373035404 2.6896717480983 2.5469179851967 2.11394503857 2.1832647108172 2.4630153811363 2.2782331025242 2.064350000769 2.4762940143237 2.5100699358387 2.2267147292786 1.9825951034206 2.8988317613876 2.5415025649694 2.6357474238452 2.2212357800065 2.3290620503741 2.6268744527172 2.4939415102635 2.8742926364685 2.5542342707162 2.6327742481067 2.5422598295064 2.3962077085495 2.4792660324432 2.5977317032658 2.2485833499209 1.4405387892601 1.7020851738702 2.1542194570213 2.2498083467073 2.1670792987486 2.5197757328721 1.9876022592419 2.6192411428028 2.6983035855963 2.0024176462825 2.6624082599967 2.3110175227773 2.6237991410361 2.5099163595829 2.714759175455 2.4336455310464 2.4283006328371 2.316078219138 2.5635435239273 2.1574179286 2.1558688662145 2.4311969149222 2.0487345684012 2.3715114754118 2.325919874022 2.2987407487622 2.5391670466094 2.2898574795602 2.7215026920717 1.8532849957652 2.5272287786301 2.3561048596596 2.7177461677596 2.3237530118365 2.1339420405136 1.9837385766561 2.1475544187263 2.1764397645403 1.7351456243501 1.3586279223787 2.3858291173009 1.8436104938331 2.4693606523461 1.6194305287967 2.4661581018101 1.9107830093749 1.8944259058655 2.5473122087126 1.3184770427798 2.2920205719362 1.8809675177028 2.6456985948185 1.8946539176221 0.98949638651786 2.1686072313748 2.0970120028926 1.62497912593 1.7868438930222 2.0997304310483 2.5175805147965 1.1811288853797 1.4695929489877 1.9515158218523 1.850980060317 0.98143467389144 1.99509635076 2.1395827287538 2.0397971256058 1.2488902570398 2.252284775377 2.0610450351483 2.0169348328429 1.9728211018133 2.1574309945283 1.9617173681236 2.3671345858347 1.8854913990203 1.1798327379606 1.6023199733125 1.6143072419243 0.79840971257821 1.2258854279977 2.0473302029892 1.6528602877538 2.1574675027299 2.0488860847228 1.9418850591264 0.86582714338234 2.0976165598171 1.7455614761759 2.0220515731952 1.7065034908492 1.4988760680872 2.0275284255845 1.7790282718613 2.2611427826357 1.8609925454716 2.3909280551763 1.9940378765966 1.372831690761 1.9436210920996 1.644294830142 1.597479869944 2.3405284215299 2.2504246108881 1.4580178540545 1.107761433441 2.5382538137008 1.9268871718198 1.5282009899943 1.3804680154434 2.1479619627459 1.791510047211 1.4991500622389 2.3464278920334 2.1768210860788 1.1588323294384 1.5696545481572 0.94531484740256 1.9843058421843 1.8499730154331 1.4697701422744 2.0744693938619 1.058488171743 0.88441143021196 1.1318202271866 1.8020799106944 1.6922391099768 1.4416279387836 0.70366335598106 1.4316094058888 1.0680097982274 0.73175634676005 0.84891730689819 1.20983499359 1.388153662846 0.97527952164632 2.4534693671035 1.6199399087496 1.6911689378389 1.8813560313323 0.86277196586043 1.8693847277365 1.6760537263722 1.7249840455481 1.5493261556117 1.237243250372 0.96552108878798 0.66343941124364 1.4352335872428 1.4523546846264 1.6906774693516 1.2135843194932 1.6505593848376 0.90635020709107 0.93662491443453 1.5825513262993 1.3018453325555 1.2102979554144 1.6095291157045 0.76549084857412 1.1028488664845 0.60056296786612 0.74362970072003 0.69832567127088 1.2884113247862 1.4923666624025 1.2210508876217 1.0265219492356 0.62093008469572 1.3939358380473 1.0211610688132 1.6001315427806 0.88400609040114 1.1298874824517 1.1688436807358 1.3155515237115 0.85353823680537 1.0655137622835 1.3964954157654 0.63293066915347 0.57510428679116 0.62777257566925 1.0261800906942 0.97906855284675 0.89174508677821 
SCALARS Marker double 1
LOOKUP_TABLE default
0 1 2 3 4 5 6 7 8 9 10 11 12 13 14 15 16 17 18 19 20 21 22 23 24 25 26 27 28 29 30 31 32 33 34 35 36 37 38 39 40 41 42 43 44 45 46 47 48 49 50 51 52 53 54 55 56 57 58 59 60 61 62 63 64 65 66 67 68 69 70 71 72 73 74 75 76 77 78 79 80 81 82 83 84 85 86 87 88 89 90 91 92 93 94 95 96 97 98 99 100 101 102 103 104 105 106 107 108 109 110 111 112 113 114 115 116 117 118 119 120 121 122 123 124 125 126 127 128 129 130 131 132 133 134 135 136 137 138 139 140 141 142 143 144 145 146 147 148 149 150 151 152 153 154 155 156 157 158 159 160 161 162 163 164 165 166 167 168 169 170 171 172 173 174 175 176 177 178 179 180 181 182 183 184 185 186 187 188 189 190 191 192 193 194 195 196 197 198 199 200 201 202 203 204 205 206 207 208 209 210 211 212 213 214 215 216 217 218 219 220 221 222 223 224 225 226 227 228 229 230 231 232 233 234 235 236 237 238 239 240 241 242 243 244 245 246 247 248 249 250 251 252 253 254 255 256 257 258 259 260 261 262 263 264 265 266 267 268 269 270 271 272 273 274 275 276 277 278 279 280 281 282 283 284 285 286 287 288 289 290 291 292 293 294 295 296 297 298 299 300 301 302 303 304 305 306 307 308 309 310 311 312 313 314 315 316 317 318 319 320 321 322 323 324 325 326 327 328 329 330 331 332 333 334 335 336 337 338 339 340 341 342 343 344 345 346 347 348 349 350 351 352 353 354 355 356 357 358 359 360 361 362 363 364 365 366 367 368 369 370 371 372 373 374 375 376 377 378 379 380 381 382 383 384 385 386 387 388 389 390 391 392 393 394 395 396 397 398 399 400 401 402 403 404 405 406 407 408 409 410 411 412 413 414 415 416 417 418 419 420 421 422 423 424 425 426 427 428 
SCALARS Resistivity double 1
LOOKUP_TABLE default
115.63184810869 90.028264678028 82.389301022786 64.10149429774 101.49972683271 130.93461556935 93.89236057736 61.139571406273 133.66938651706 88.922452726331 69.492884256898 73.766414491807 32.690946260639 89.8536114291 84.806047979459 180.51745237351 70.596577166178 52.76096214991 64.604982733874 60.882880348166 60.526499266907 118.19210032674 70.017838242888 71.592150871563 91.400651294369 47.195581157693 61.932878566792 207.51940832428 50.71030887813 63.568975367641 95.462318758161 53.658480260712 64.975592144601 62.626472900477 68.826394872484 118.61230204031 75.458657367121 49.002863023097 67.118790918564 79.989446787173 85.871721230969 81.64771542457 74.120658071511 54.520820316444 86.859925805671 46.867277652983 77.144942329649 136.39263806496 87.488237469097 68.743516949435 69.048249961179 75.343208792409 67.949013984218 59.553724414895 40.218910881422 80.758337167107 60.270562546926 81.406954384686 46.921979347949 49.499358479708 95.798430355767 140.11415081401 79.62156593673 57.737950431407 68.325556290743 58.730586962 80.836231018355 99.764131892095 66.316358259125 58.840772291285 81.781121035779 83.150067951004 58.204574022376 90.290419524862 58.911984135578 84.7028111649 56.046487415195 68.951651340403 50.050928575652 54.534983177291 62.102642126159 157.53758798906 77.286678979059 88.43416156653 63.436087032745 110.21495890421 181.28211598835 115.3382899271 165.25766958665 76.934700456691 36.207191922913 100.20369149628 206.05781512341 96.594633536394 40.024147355415 47.665270491497 63.648902199532 294.90587794918 48.907452599687 68.835309033106 49.828546056873 55.213690024051 91.828074649335 20.601307124927 104.33086375295 61.687420393651 60.476309270311 49.251048571665 75.758091185275 68.082557623673 44.487015300644 56.150352582758 76.548814846161 96.879334260417 68.017079862666 57.94732641206 33.867919525724 89.450827582319 38.764533057094 69.968407932377 24.211197177243 61.225382803886 64.139911469388 85.367172706713 26.787566897808 93.084913181739 28.080568775666 67.351407672965 40.112572811859 64.108600198618 61.950837292151 89.673388135932 67.512472434832 75.315193688491 50.192830426862 151.32658023975 99.455734369548 82.708863023447 107.37498127374 96.12037626682 69.236030117882 49.188255935601 73.402789930332 61.932910651566 50.047458769123 68.713687587701 38.186423786021 69.212478687703 49.670414220685 68.234058087968 101.08221439812 84.212050804376 99.666140988603 101.17995058976 68.004273665331 81.404314039787 116.5685757717 120.45479506691 74.088199897951 83.869672456859 209.2184338183 127.64734287387 70.961964720915 262.23220356516 121.02716029073 70.54386411039 136.96121417945 38.369874226609 18.656018258104 69.894398439945 87.743434701807 67.730499678728 80.13295062544 74.767207043221 84.9251539994 96.269120971013 67.820630664752 71.03254179734 101.9684588436 83.266625500152 51.598663653704 44.090199005012 78.000475093819 63.874059192652 84.990615930306 81.772538457586 73.71971530898 73.671375603982 113.60426281806 95.583756439948 75.680324151455 137.26500971765 112.22817658808 79.638685139308 80.494366103424 48.244172271675 83.573121643652 67.815558777768 61.982696848168 47.99211594127 44.351556675473 63.001085701405 43.392363959543 104.57453259744 62.576263884457 73.850321242517 72.338522483283 80.842007208662 77.124349676679 106.59517928281 81.168638920296 140.44891176422 86.973957084248 149.30837099403 84.102463859695 75.403822597078 31.995420102646 67.471853223644 80.327866425356 73.040127707817 83.290377157965 69.708242646317 129.98138375338 125.72804109509 89.363436039623 33.679435698197 34.998758684778 80.383421863137 102.88674011823 67.2753723454 16.785371602412 87.508582033455 95.701045962838 87.942568950944 93.512532977595 87.481782111608 108.56896621159 97.416989792118 110.72588847245 91.940706633362 108.50895624164 85.168620284452 152.82038911781 83.923206544999 57.749248306387 27.579800995084 22.989030088537 100.35583145695 81.134775972227 130.58079001901 87.73108667982 81.366702745961 91.362672018204 95.363041709098 133.84691786522 95.195929825801 110.73220718073 103.7342246139 120.8126815831 76.362431844725 102.41788120788 108.57361447812 163.44647345042 159.68204301065 121.7578944762 130.66888482231 124.18627689441 133.21882271232 138.78762998326 114.65852442133 100.44695491732 63.516816521728 164.48306142626 85.604208532307 94.484304325801 90.020962848942 55.004935277161 106.83150722243 133.01277997032 131.12757497127 133.33582077061 171.36868758315 201.65204288284 99.272829569883 186.55945267428 70.316475973754 137.71638731475 55.266885070275 44.482525072357 176.2179677051 87.539641596391 127.78167038866 100.37747154981 129.12011828348 78.893780205489 44.622087921687 304.66729473003 109.9276739113 87.279012505038 74.529967492063 100.10085660032 137.16660842105 72.680257241104 424.78155112747 322.71197438993 171.75593779972 225.69048798168 212.6009016124 34.805288279513 51.815169169686 184.26440320076 132.21312619969 132.64657748171 125.35827845299 163.08318832881 182.80477840302 63.756552773103 128.71124602706 85.02536660106 195.86989385579 165.43669271767 183.35663106701 68.125951041472 518.57481630897 160.04793949429 151.19903365363 252.84328863589 65.195244450489 72.198757939907 84.121061288958 291.13097087151 31.252246958305 101.90443067687 33.006604978542 62.049228902481 144.07000574472 74.842061637029 164.93931088812 117.76458753714 144.80183029235 80.618668625827 192.99875782136 98.699712341385 74.336829694318 97.125529993282 72.922615565552 72.144014270296 116.97135209894 335.58917835635 254.14536370718 72.388215095483 40.132850912826 83.63188908097 173.08477534424 112.85620162756 101.49399821782 163.61564575709 96.021861032964 113.89743199669 261.26548264392 209.32500770842 466.51086384758 129.26615047378 42.624351830752 92.840570989931 40.396301288612 175.88859289584 324.21955590487 255.80375189013 94.256927235836 117.04859544024 96.368573827599 406.13066512409 164.9043790827 238.61813626183 494.49700024608 305.24736665571 213.34162284625 273.57786536069 428.93979468121 81.336032112655 255.45863748629 251.66152004682 188.79609152944 320.43939964153 153.44344142463 186.11779292814 129.75771694431 198.55321532553 252.31469645143 291.1265781426 364.93153970174 333.09416698578 304.57748729502 256.3356995625 286.63651377057 182.21683168154 357.55194571055 320.84448331675 298.43290922341 359.89514249033 252.40518116189 171.43475483039 516.47056602528 432.33479482115 384.29396584539 374.83943195376 390.67032447022 247.06598154701 215.10341979562 419.26234385356 472.59070379257 469.08908431216 226.42998945001 295.11987631452 237.44518998534 421.69444947333 319.68163205529 239.71268145548 242.48100324747 336.80394531509 344.46158198571 303.11036669853 521.12427209674 405.96493365615 371.77660953026 295.81661995583 279.32626601416 290.33516448037 
SCALARS Resistivity_(log10) double 1
LOOKUP_TABLE default