# vtk DataFile Version 3.0
d-2__ created by libgimli-v1.5.0-1-g5991b6ac
ASCII
DATASET UNSTRUCTURED_GRID
POINTS 257 double
25.5	-0.25	0
25.643267391024	-0.375	0
25.690940791558	-0.19094079155751	0
28.625	-0.27380702240065	0
28.625	-0.13804348840204	0
28.518663902413	-0.18940103023301	0
28.458333333333	-0.087886572211468	0
28.416666666667	0	0
28.375	-0.13804348840204	0
28.291666666667	-0.087886572211468	0
28.333333333333	0	0
28.25	0	0
26.083333333333	0	0
26.041666666667	-0.13804348840203	0
26.125	-0.087886572211466	0
26.166666666667	0	0
26	0	0
26.708333333333	-0.13804348840203	0
26.666666666667	0	0
26.625	-0.087886572211466	0
26.208333333333	-0.07357428207177	0
26.75	0	0
26.791666666667	-0.087886572211464	0
26.333333333333	0	0
26.25	0	0
26.291666666667	-0.087886572211468	0
27.166666666667	0	0
27.208333333333	-0.07357428207177	0
27.25	0	0
26.416666666667	0	0
26.375	-0.13804348840204	0
26.458333333333	-0.087886572211468	0
27.291666666667	-0.087886572211468	0
27.333333333333	0	0
27.625	-0.13804348840204	0
27.518663902413	-0.18940103023301	0
27.625	-0.27380702240065	0
26.583333333333	0	0
28.916666666667	0	0
28.833333333333	0	0
28.875	-0.13804348840204	0
26.833333333333	0	0
26.875	-0.07357428207177	0
29.98747163413	-0.5056358037932	0
30.050519698408	-0.25547676721966	0
29.843533331918	-0.29816134131379	0
29.458333333333	-0.087886572211464	0
29.404607252882	-0.15094638411797	0
29.541666666667	-0.13804348840203	0
26.5	0	0
27.791666666667	-0.087886572211468	0
27.833333333333	0	0
27.75	0	0
27.231336097587	-0.18940103023302	0
27.125	-0.13804348840204	0
25.705488373266	-0.59091608366499	0
26.007921013115	-0.8717186506847	0
25.91135296792	-0.47048281487414	0
30.166666666667	0	0
30.208333333333	-0.087886572211464	0
30.25	0	0
27	0	0
26.916666666667	0	0
26.958333333333	-0.13804348840203	0
30.791666666667	-0.087886572211468	0
30.833333333333	0	0
30.75	0	0
27.041666666667	-0.087886572211464	0
27.083333333333	0	0
30.083333333333	0	0
30.125	-0.07357428207177	0
28.541666666667	-0.073574282071767	0
27.375	-0.13804348840204	0
27.416666666667	0	0
27.5	0	0
27.458333333333	-0.087886572211468	0
28.583333333333	0	0
28.666666666667	0	0
28.226291378505	-0.21877391554365	0
28.432011579996	-0.40775209656411	0
30.148002764253	-0.18940103023303	0
30.208717134119	-0.38392172835888	0
30.291666666667	-0.13804348840203	0
28.208333333333	-0.07357428207177	0
28.166666666667	0	0
28.125	-0.072182208352023	0
27.875	-0.13804348840204	0
26.237940586216	-0.15094638411797	0
27.916666666667	0	0
27.708333333333	-0.07357428207177	0
28.083333333333	0	0
28	0	0
28.041666666667	-0.13804348840203	0
26.190375288162	-0.21877391554366	0
27.958333333333	-0.087886572211464	0
26.541666666667	-0.073574282071767	0
26.571273919549	-0.15094638411796	0
26.317063962986	-0.25702488420529	0
27.541666666667	-0.073574282071767	0
28.5	0	0
29.583333333333	0	0
29.625	-0.087886572211466	0
28.791666666667	-0.087886572211468	0
26.203594889612	-0.40391444725954	0
27.583333333333	0	0
27.666666666667	0	0
28.75	0	0
28.958333333333	-0.087886572211464	0
29	0	0
29.041666666667	-0.13804348840203	0
28.708333333333	-0.07357428207177	0
29.083333333333	0	0
29.125	-0.087886572211466	0
29.166666666667	0	0
29.208333333333	-0.13804348840203	0
29.25	0	0
28.165334880767	-0.15260258505374	0
29.291666666667	-0.087886572211464	0
27.731336097587	-0.18940103023302	0
29.5	0	0
29.416666666667	0	0
29.333333333333	0	0
29.375	-0.07357428207177	0
29.666666666667	0	0
28.086941669094	-0.2859797646022	0
27.958333333333	-0.18219221742147	0
29.125	-0.18219221742148	0
29.228873378537	-0.27753669533404	0
29.708333333333	-0.07357428207177	0
29.041666666667	-0.23876614697008	0
28.958333333333	-0.18219221742147	0
29.833333333333	0	0
29.875	-0.13804348840204	0
29.916666666667	0	0
29.791666666667	-0.087886572211468	0
29.75	0	0
29.958333333333	-0.087886572211464	0
30	0	0
29.483730629652	-0.25702488420531	0
30.333333333333	0	0
30.375	-0.087886572211466	0
29.369620976373	-0.40603607246707	0
29.604159114629	-0.34842263547806	0
31.124752694808	-0.11296503030675	0
31	0	0
30.958333333333	-0.087886572211468	0
30.041666666667	-0.13804348840203	0
30.416666666667	0	0
30.458333333333	-0.07357428207177	0
30.875	-0.13804348840204	0
30.583333333333	0	0
30.541666666667	-0.13804348840203	0
30.625	-0.087886572211466	0
30.5	0	0
30.43533056908	-0.18940103023302	0
30.916666666667	0	0
30.385963434616	-0.36114994877356	0
30.708333333333	-0.07357428207177	0
30.666666666667	0	0
29.636111778917	-0.20065391017952	0
30.999752694808	-0.25100851870879	0
28.731336097587	-0.18940103023302	0
26.851997235747	-0.18940103023303	0
30.737940586216	-0.15094638411797	0
26.523708621495	-0.21877391554365	0
27.133853031742	-0.25547676721968	0
26.949480301592	-0.25547676721966	0
27.041666666667	-0.52911283384145	0
27.041666666667	-0.18219221742147	0
29.357041954828	-0.21877391554366	0
29.737940586216	-0.15094638411797	0
30.690375288162	-0.21877391554366	0
29.958333333333	-0.18219221742147	0
25.875	-0.11303967622539	0
25.75	0	0
26.650397296319	-0.25702488420526	0
27.292050467453	-0.38392172835888	0
27.414390113348	-0.63321254312708	0
27.469144028345	-0.36097200963104	0
27.848127708251	-0.28948918465343	0
28.848127708251	-0.28948918465343	0
28.726596951268	-0.4234584073117	0
29.731548923005	-0.26700761442393	0
30.817063962986	-0.25702488420529	0
26.031958747178	-0.33325463579056	0
26.523689393121	-0.44776195923934	0
29.184065504659	-0.43422319923747	0
29.545209981036	-0.61464357222601	0
30.552290248164	-0.29580321144285	0
31.25	0	0
26.800529041383	-0.37028063139366	0
29.130694908432	-0.28024272799092	0
28.907115884997	-0.43487734236883	0
31.5	-0.5	0
31.5	-0.25	0
31.356886217184	-0.375	0
31.308843572405	-0.19115642759521	0
31.5	0	0
27.681768476189	-0.55823447719905	0
29.041897355025	-0.3545575021244	0
28.950100433703	-0.28398118611486	0
29.746371622197	-0.43057135368151	0
29.045779100149	-0.5143168838031	0
27.615347366628	-0.83560735755964	0
27.971649595913	-0.56775148091581	0
28.235269600634	-0.41546210057925	0
28.346412380513	-0.73751448832674	0
28.007726950717	-0.98664640296265	0
26.322202955504	-0.72835150504623	0
29.798122080496	-0.68908130839227	0
30.703430397599	-0.40445925111313	0
30.914859484231	-0.44990795630246	0
29.247599241801	-0.70334449364573	0
31.053928463665	-0.58159990549132	0
31.221377875989	-0.67457110982012	0
31.225195424337	-0.49586438948828	0
30.530720924191	-0.4852517756918	0
30.323984230706	-0.57992151527177	0
25.84485407481	-1.2957460393421	0
25.743909551686	-0.8528010586154	0
30.746070739038	-0.72060716412098	0
29.604860290622	-0.8788438191921	0
29.043947453281	-1.1807973577914	0
29.54268225478	-1.3246684327942	0
29.849430697053	-0.99522786547226	0
30.043693421774	-0.75311160759413	0
28.849047319116	-0.69970565535729	0
31.000856094841	-0.87446921301307	0
31.5	-1	0
25.845623228308	-0.30002188546398	0
30.512369350266	-0.71824350459	0
30	-1.6666666666667	0
30.051778272566	-1.3024535658708	0
25.5	0	0
27.680522574649	-1.2514855461386	0
27.375	-1.6666666666667	0
27.75	-1.6666666666667	0
31.174325422113	-0.32450830281231	0
25.5	-0.5	0
26.747329141204	-0.71351083399284	0
25.5	-0.75	0
26.348572023727	-1.2023161679924	0
27.179597305363	-1.0673000334922	0
29.25	-1.6666666666667	0
25.5	-1	0
30.75	-1.6666666666667	0
31.013091550828	-1.3141602648437	0
30.625304590967	-1.106556793762	0
30.375	-1.6666666666667	0
30.189043391347	-0.96114657873573	0
28.064690440023	-1.391571216678	0
28.426745644615	-1.201505510398	0
25.5	-1.6666666666667	0
27	-1.6666666666667	0
26.25	-1.6666666666667	0
28.5	-1.6666666666667	0
31.5	-1.6666666666667	0
CELLS 429 1716
3	0	1	2	
3	3	4	5	
3	6	7	8	
3	9	10	11	
3	12	13	14	
3	14	15	12	
3	16	13	12	
3	17	18	19	
3	20	15	14	
3	7	10	8	
3	21	17	22	
3	23	24	25	
3	26	27	28	
3	29	30	31	
3	23	30	29	
3	28	32	33	
3	34	35	36	
3	19	18	37	
3	38	39	40	
3	22	41	21	
3	41	22	42	
3	43	44	45	
3	18	17	21	
3	46	47	48	
3	31	49	29	
3	50	51	52	
3	53	27	54	
3	55	56	57	
3	58	59	60	
3	61	62	63	
3	64	65	66	
3	67	68	61	
3	67	61	63	
3	69	70	58	
3	4	71	5	
3	72	73	33	
3	5	6	8	
3	74	73	75	
3	73	72	75	
3	76	4	77	
3	78	79	8	
3	80	81	82	
3	83	84	85	
3	50	86	51	
3	25	87	30	
3	86	88	51	
3	52	89	50	
3	90	91	92	
3	93	87	14	
3	94	92	91	
3	95	49	31	
3	9	8	10	
3	84	83	11	
3	19	95	96	
3	91	88	94	
3	25	30	23	
3	9	11	83	
3	97	30	87	
3	98	74	75	
3	99	71	76	
3	100	48	101	
3	33	32	72	
3	99	7	6	
3	41	42	62	
3	102	40	39	
3	71	99	6	
3	97	93	103	
3	104	34	105	
3	39	106	102	
3	74	98	104	
3	38	107	108	
3	107	109	108	
3	35	75	72	
3	106	110	102	
3	34	98	35	
3	28	27	32	
3	111	112	113	
3	109	111	108	
3	59	82	60	
3	113	114	115	
3	116	9	83	
3	114	117	115	
3	50	89	118	
3	119	120	46	
3	119	48	100	
3	110	106	77	
3	120	121	122	
3	89	52	105	
3	101	123	100	
3	124	92	125	
3	54	26	68	
3	114	126	127	
3	101	128	123	
3	129	109	130	
3	131	132	133	
3	134	131	135	
3	48	119	46	
3	115	117	121	
3	136	137	133	
3	47	138	48	
3	60	82	139	
3	82	140	139	
3	141	142	138	
3	143	144	145	
3	122	47	46	
3	146	137	136	
3	113	112	114	
3	134	132	131	
3	147	140	148	
3	149	65	64	
3	150	151	152	
3	150	153	151	
3	148	154	151	
3	147	148	153	
3	65	149	155	
3	59	58	70	
3	155	145	144	
3	82	81	156	
3	145	155	149	
3	146	69	137	
3	157	158	152	
3	154	140	82	
3	147	139	140	
3	101	48	159	
3	149	160	145	
3	102	110	161	
3	150	152	158	
3	42	22	162	
3	157	163	64	
3	5	71	6	
3	4	76	71	
3	85	84	90	
3	116	83	85	
3	96	31	164	
3	49	95	37	
3	15	20	24	
3	25	20	87	
3	14	13	93	
3	25	24	20	
3	165	166	167	
3	63	168	67	
3	54	68	67	
3	17	162	22	
3	63	62	42	
3	35	98	75	
3	34	104	98	
3	26	54	27	
3	63	42	162	
3	88	86	94	
3	125	94	86	
3	105	34	89	
3	118	89	34	
3	77	4	110	
3	161	110	4	
3	111	109	112	
3	126	112	109	
3	47	117	169	
3	120	122	46	
3	38	40	107	
3	130	107	40	
3	121	117	122	
3	117	114	169	
3	80	70	146	
3	123	128	135	
3	134	128	170	
3	159	48	138	
3	134	135	128	
3	163	152	171	
3	158	157	66	
3	154	148	140	
3	151	153	148	
3	69	146	70	
3	172	44	146	
3	9	78	8	
3	161	40	102	
3	90	92	85	
3	116	78	9	
3	92	94	125	
3	5	79	3	
3	164	31	30	
3	19	37	95	
3	173	16	174	
3	164	175	96	
3	17	19	96	
3	53	165	176	
3	53	32	27	
3	118	86	50	
3	175	17	96	
3	176	177	178	
3	118	36	179	
3	78	116	124	
3	180	3	181	
3	169	114	127	
3	114	112	126	
3	134	170	132	
3	133	132	136	
3	44	80	146	
3	146	136	172	
3	82	59	80	
3	152	151	171	
3	64	66	157	
3	80	59	70	
3	64	163	149	
3	170	101	159	
3	136	132	172	
3	85	92	116	
3	124	116	92	
3	97	164	30	
3	166	168	63	
3	14	87	20	
3	87	93	97	
3	117	47	122	
3	47	169	138	
3	101	170	128	
3	142	182	159	
3	132	45	172	
3	149	163	183	
3	31	96	95	
3	162	166	63	
3	184	93	13	
3	97	185	164	
3	156	154	82	
3	141	127	186	
3	142	141	187	
3	44	172	45	
3	152	163	157	
3	163	171	183	
3	103	93	184	
3	53	72	32	
3	154	188	151	
3	189	144	143	
3	185	175	164	
3	175	190	162	
3	118	179	86	
3	125	179	124	
3	109	107	130	
3	126	129	191	
3	161	180	40	
3	127	126	191	
3	169	141	138	
3	141	169	127	
3	125	86	179	
3	180	181	192	
3	193	194	195	
3	196	194	197	
3	149	183	160	
3	143	145	160	
3	167	176	165	
3	162	17	175	
3	198	178	177	
3	72	53	176	
3	118	34	36	
3	185	97	103	
3	126	109	129	
3	186	191	199	
3	180	130	40	
3	130	180	200	
3	161	4	3	
3	129	199	191	
3	138	142	159	
3	45	182	201	
3	130	200	129	
3	192	202	199	
3	202	186	199	
3	129	200	199	
3	142	187	201	
3	191	186	127	
3	180	192	200	
3	199	200	192	
3	180	161	3	
3	142	201	182	
3	54	67	168	
3	203	204	198	
3	79	5	8	
3	78	124	205	
3	182	170	159	
3	151	188	171	
3	185	190	175	
3	204	206	205	
3	201	43	45	
3	43	81	44	
3	207	206	204	
3	57	56	208	
3	44	81	80	
3	209	201	187	
3	35	72	178	
3	57	208	103	
3	13	16	173	
3	183	210	211	
3	141	212	187	
3	45	170	182	
3	213	214	215	
3	205	79	78	
3	216	156	217	
3	45	132	170	
3	196	197	189	
3	218	56	219	
3	178	198	36	
3	188	156	216	
3	220	211	210	
3	57	103	184	
3	204	179	198	
3	165	53	54	
3	221	222	223	
3	209	224	225	
3	43	217	81	
3	226	212	202	
3	214	227	228	
3	211	160	183	
3	210	171	188	
3	226	192	181	
3	193	215	214	
3	3	79	181	
3	205	206	79	
3	186	212	141	
3	212	186	202	
3	173	229	13	
3	167	177	176	
3	72	176	178	
3	206	226	181	
3	213	227	214	
3	217	230	216	
3	196	195	194	
3	231	232	223	
3	227	213	220	
3	206	181	79	
3	187	212	221	
3	173	174	2	
3	13	229	184	
3	174	233	2	
3	234	235	236	
3	196	189	143	
3	233	0	2	
3	160	237	143	
3	237	195	196	
3	1	0	238	
3	173	2	229	
3	177	203	198	
3	198	179	36	
3	239	190	185	
3	35	178	36	
3	192	226	202	
3	195	215	193	
3	188	216	210	
3	220	210	216	
3	213	237	211	
3	154	156	188	
3	124	179	204	
3	221	212	222	
3	240	219	55	
3	54	168	165	
3	196	143	237	
3	195	237	215	
3	55	1	238	
3	167	166	190	
3	2	1	229	
3	1	55	57	
3	190	166	162	
3	204	205	124	
3	241	208	56	
3	242	167	239	
3	223	222	243	
3	156	81	217	
3	160	211	237	
3	213	215	237	
3	183	171	210	
3	228	193	214	
3	219	244	218	
3	56	55	219	
3	184	229	57	
3	57	229	1	
3	220	213	211	
3	245	246	247	
3	230	220	216	
3	220	247	227	
3	248	247	232	
3	228	227	246	
3	55	238	240	
3	249	230	217	
3	247	249	232	
3	166	165	168	
3	221	209	187	
3	43	225	217	
3	209	43	201	
3	247	246	227	
3	190	239	167	
3	207	204	203	
3	208	185	103	
3	242	203	177	
3	207	250	251	
3	240	244	219	
3	252	218	244	
3	224	209	221	
3	217	225	249	
3	43	209	225	
3	241	242	239	
3	167	242	177	
3	253	242	241	
3	56	218	241	
3	212	226	222	
3	249	225	224	
3	234	250	207	
3	239	185	208	
3	231	223	243	
3	224	232	249	
3	252	254	218	
3	241	218	254	
3	253	241	254	
3	239	208	241	
3	206	207	251	
3	224	221	223	
3	223	232	224	
3	248	245	247	
3	234	207	203	
3	250	255	251	
3	251	226	206	
3	255	243	222	
3	249	247	230	
3	220	230	247	
3	203	242	234	
3	235	242	253	
3	255	222	251	
3	226	251	222	
3	232	231	248	
3	245	256	246	
3	228	246	256	
3	242	235	234	
3	234	236	250	
3	255	250	236	
CELL_TYPES 429
5 5 5 5 5 5 5 5 5 5 5 5 5 5 5 5 5 5 5 5 5 5 5 5 5 5 5 5 5 5 5 5 5 5 5 5 5 5 5 5 5 5 5 5 5 5 5 5 5 5 5 5 5 5 5 5 5 5 5 5 5 5 5 5 5 5 5 5 5 5 5 5 5 5 5 5 5 5 5 5 5 5 5 5 5 5 5 5 5 5 5 5 5 5 5 5 5 5 5 5 5 5 5 5 5 5 5 5 5 5 5 5 5 5 5 5 5 5 5 5 5 5 5 5 5 5 5 5 5 5 5 5 5 5 5 5 5 5 5 5 5 5 5 5 5 5 5 5 5 5 5 5 5 5 5 5 5 5 5 5 5 5 5 5 5 5 5 5 5 5 5 5 5 5 5 5 5 5 5 5 5 5 5 5 5 5 5 5 5 5 5 5 5 5 5 5 5 5 5 5 5 5 5 5 5 5 5 5 5 5 5 5 5 5 5 5 5 5 5 5 5 5 5 5 5 5 5 5 5 5 5 5 5 5 5 5 5 5 5 5 5 5 5 5 5 5 5 5 5 5 5 5 5 5 5 5 5 5 5 5 5 5 5 5 5 5 5 5 5 5 5 5 5 5 5 5 5 5 5 5 5 5 5 5 5 5 5 5 5 5 5 5 5 5 5 5 5 5 5 5 5 5 5 5 5 5 5 5 5 5 5 5 5 5 5 5 5 5 5 5 5 5 5 5 5 5 5 5 5 5 5 5 5 5 5 5 5 5 5 5 5 5 5 5 5 5 5 5 5 5 5 5 5 5 5 5 5 5 5 5 5 5 5 5 5 5 5 5 5 5 5 5 5 5 5 5 5 5 5 5 5 5 5 5 5 5 5 5 5 5 5 5 5 5 5 5 5 5 5 5 5 5 5 5 5 5 5 5 5 5 5 5 5 5 5 5 5 5 5 5 5 5 5 5 5 5 5 5 5 
CELL_DATA 429
SCALARS Coverage double 1
LOOKUP_TABLE default
1.6292403126581 2.5548531500315 3.0706783273848 3.2450385428714 2.5355381929953 2.8414631327948 2.9810242336999 2.7899177525013 2.7142120588731 3.1625375540544 2.8312193440555 3.0809492125375 3.3290931432945 2.8388462351554 2.8947173950586 3.3458012915152 2.553974188745 2.9832303054896 3.1393171590191 3.3035865273156 2.9915850498754 2.2347390931401 3.2428432103322 2.6005873563082 3.2502576039223 3.4316444083051 2.6283588617305 1.3528734071155 3.1164281202479 3.3695089872198 2.8193716828677 3.4740140710352 2.9627906178904 2.9948581598215 2.7395526437692 3.0697887414065 2.8286001332518 3.1087837143376 2.81255193877 3.1417741963067 2.4437335253859 2.343553878604 3.0180314662705 3.0256911838926 2.4987409043459 3.1515874947999 3.0311657116402 3.4271810915451 2.4106232873934 2.8850808294698 2.7803277619999 2.9434178520685 3.2833895981673 2.6607838979362 3.3991721870708 2.6874080380116 2.8777405991147 2.3267671671277 2.6932320883336 3.3342796867927 2.9105397931539 3.0241452271405 3.3831512060567 3.1172657368029 3.003059266127 2.9132172350706 2.0249815380839 3.1449011389696 3.410435034291 3.1764258641568 3.5205979213433 3.0400827930325 2.6865343577997 3.083854597663 2.7337408633 2.9946360807878 3.1689068467646 3.4497579940785 2.6359164357373 3.2245057593187 2.786696176368 3.2618110804101 2.8502638561188 3.1508629791566 3.1921953098537 3.500928749604 3.056126011988 3.433024469478 3.0880273098073 2.6324516144681 2.98685210219 2.6051766960261 3.0307765447213 2.6795704491721 3.0414796594337 3.3473025853012 2.6651224377529 3.4201806832455 3.3554757481926 2.5570730052265 3.102739916935 2.7901219175951 2.2668265866765 2.2049283880114 2.7894633000042 2.8698628970585 2.922458825919 2.9338865420886 2.8618907362976 2.4313303694663 2.6023384675515 3.0412168472141 2.5162349124567 3.1511526096504 2.5552855999379 2.8529420056818 2.7725278059903 2.2270030694631 2.3384037306063 3.3699034507426 2.6193922790069 2.5718051758172 2.9585109711247 2.7308770063123 1.970958680889 2.8914617416247 2.7569752429849 2.7466148325651 2.2851368195513 2.7855899144084 2.9762592815375 3.096782110803 2.9323260445992 2.5099460444251 3.2467336354486 3.0770462125024 2.5582443489748 2.3279670995793 2.6961215876558 2.269140270303 2.7523004182998 2.9615286120689 2.624488113642 2.9347469519694 2.6072063658157 2.8982664975661 2.889094116914 2.6878757447147 3.0031184900488 2.7650539368758 3.0793503541505 2.9023738933913 3.1489284250524 2.8798243048223 3.0317937874998 2.7693176410585 2.8697027086803 2.9439400760961 3.0790714663312 2.8125673717685 3.0426849693821 2.8240647161178 2.7201238034588 3.3377192190339 2.7658475137251 2.5561051830981 3.0166899049584 2.2287466921156 2.8592661422069 2.7089690318375 2.804713674058 2.9148068521844 2.585617745649 2.7040869083256 2.7685695787428 3.0088604441362 2.6911591684389 2.7935345452518 2.3790233339877 2.5428205463727 2.8872556569336 2.7378392639744 2.3358980073195 2.5776957278934 2.3627535703819 2.7622069268342 2.7855786101846 2.4393658863095 2.0941633288772 2.5167819533307 2.5515051420132 2.3050842908212 2.6813428368231 2.7027541089679 2.708392368072 2.9222270062709 2.5469155519614 2.7509202673487 2.5156539294129 2.3242842972214 2.3937683036731 2.6591149870063 2.2514859900928 2.7659758988457 2.695130643615 2.8664470243796 2.7105799906194 2.3220340428818 2.5696061626379 2.5498618977855 2.231648433474 3.0193248406172 2.5409915019503 2.9912404077414 2.4137519803018 2.4917816096103 2.0360479608088 2.670032345067 2.5376807084989 2.0802437749123 2.0989380126329 2.3930866219699 2.2430667567846 2.0722326954558 2.4295208432706 2.3625482513057 2.0199475575973 1.9433569018304 2.8770558286679 2.3399277168517 2.4649648202098 2.1420609078984 2.3059243272599 2.6198207303238 2.4882210178856 2.8528352063826 2.5036264896013 2.5750329198199 2.4899419900578 2.3805880273358 2.4222374986783 2.5856323299513 2.2215278749168 1.362827139959 1.5472688444374 1.9560867820134 2.0617056358779 2.1903423530427 2.4506077875896 2.0177690980915 2.6107488818817 2.6882704225539 1.9234241291315 2.6034915305693 2.2799508574738 2.6001541268243 2.4778645843478 2.6519216576904 2.3934549126444 2.3980775151026 2.2574907774435 2.5304019416505 2.1481562576436 2.1427239727036 2.4034379310763 2.0559632406268 2.335068862978 2.311837342819 2.2770115287083 2.4830205951799 2.2450833668832 2.7001474858249 1.8647087732118 2.5254387850054 2.3530329943579 2.5893586215849 2.1577501369469 2.0935654892272 1.96655434486 2.1278315934009 2.1358267602981 1.7154197713739 1.3524682182495 2.3290165376707 1.8856457229959 2.4691886879211 1.6015201950721 2.4778117210511 1.7679208476854 1.912969309627 2.4377453012479 1.3461440766573 2.2731535915749 1.8553847126176 2.5224118948404 1.7215310598015 0.98548313606552 2.1899446951137 1.9875751398175 1.5870461664185 1.7534172226185 2.1260535691657 2.4997653594422 1.2110748739828 1.5336833106643 1.9364269805039 1.8491341199035 1.0439942225503 1.8148897017229 1.96079916898 2.0261898487231 1.294585689691 2.2271233617093 2.0333041124843 2.0193363259412 1.9768692024724 2.1222160081617 1.9961012652525 2.3594171456525 1.8749322550859 1.2536336989157 1.6420377253911 1.5195403321062 0.83509453235977 1.2805795226624 2.0236891720483 1.6965658260758 2.1071903906782 2.0193142978405 1.8776023808789 0.85045623019183 1.9325778354797 1.6798777297977 1.8698595846094 1.6138206001624 1.454938554899 1.9928578901449 1.8022185907839 2.2860001238829 1.8695724706893 2.3957047540285 1.9842997831331 1.3498117202309 1.8493588188017 1.6324678636756 1.562548387215 2.1919572747203 2.2665186152626 1.4855783112765 1.1224478017451 2.5298317537977 1.8339607501552 1.5230353369327 1.3658904378684 2.1672591169581 1.7465181428176 1.4835741015785 2.3579075841972 2.183064143499 1.1577298831158 1.6045172016708 0.96175635774301 1.9684526601824 1.7458540619044 1.4856006181199 1.9009099638947 1.0858333143737 0.89003821321108 1.1422458406993 1.7667902375784 1.6698925621787 1.4608580692041 0.75316030995985 1.4984993802658 1.1494853454444 0.79801132083366 0.90764822626271 1.2008609406815 1.4691824353754 1.0594626181684 2.4503533965567 1.6823557908948 1.7339096591025 1.9192029945892 0.93129684632752 1.8999100809135 1.6687163181215 1.6882738888368 1.5707296407742 1.2107708336312 0.96568565676313 0.65533410045612 1.4981574617087 1.5133609237656 1.7390090435843 1.2551017585258 1.6963559348326 0.94329461387522 0.93900998162583 1.5820218312182 1.3683235220324 1.1889462804467 1.617032317431 0.78251158220235 1.1678051506495 0.59540258210541 0.75199567286551 0.71442434959195 1.312391151201 1.4686702820872 1.2722268120307 1.076136932882 0.67396062936215 1.3833797422189 0.99655147974366 1.5819620700897 0.88212630018916 1.2146127548179 1.2580019903659 1.3199059975038 0.87557219207167 1.0524178901015 1.3899128186082 0.68644237882251 0.58436903701094 0.63668208764495 1.0263375436822 0.95438330684782 0.86184499547726 
SCALARS Marker double 1
LOOKUP_TABLE default
0 1 2 3 4 5 6 7 8 9 10 11 12 13 14 15 16 17 18 19 20 21 22 23 24 25 26 27 28 29 30 31 32 33 34 35 36 37 38 39 40 41 42 43 44 45 46 47 48 49 50 51 52 53 54 55 56 57 58 59 60 61 62 63 64 65 66 67 68 69 70 71 72 73 74 75 76 77 78 79 80 81 82 83 84 85 86 87 88 89 90 91 92 93 94 95 96 97 98 99 100 101 102 103 104 105 106 107 108 109 110 111 112 113 114 115 116 117 118 119 120 121 122 123 124 125 126 127 128 129 130 131 132 133 134 135 136 137 138 139 140 141 142 143 144 145 146 147 148 149 150 151 152 153 154 155 156 157 158 159 160 161 162 163 164 165 166 167 168 169 170 171 172 173 174 175 176 177 178 179 180 181 182 183 184 185 186 187 188 189 190 191 192 193 194 195 196 197 198 199 200 201 202 203 204 205 206 207 208 209 210 211 212 213 214 215 216 217 218 219 220 221 222 223 224 225 226 227 228 229 230 231 232 233 234 235 236 237 238 239 240 241 242 243 244 245 246 247 248 249 250 251 252 253 254 255 256 257 258 259 260 261 262 263 264 265 266 267 268 269 270 271 272 273 274 275 276 277 278 279 280 281 282 283 284 285 286 287 288 289 290 291 292 293 294 295 296 297 298 299 300 301 302 303 304 305 306 307 308 309 310 311 312 313 314 315 316 317 318 319 320 321 322 323 324 325 326 327 328 329 330 331 332 333 334 335 336 337 338 339 340 341 342 343 344 345 346 347 348 349 350 351 352 353 354 355 356 357 358 359 360 361 362 363 364 365 366 367 368 369 370 371 372 373 374 375 376 377 378 379 380 381 382 383 384 385 386 387 388 389 390 391 392 393 394 395 396 397 398 399 400 401 402 403 404 405 406 407 408 409 410 411 412 413 414 415 416 417 418 419 420 421 422 423 424 425 426 427 428 
SCALARS Resistivity double 1
LOOKUP_TABLE default
149.83735223906 100.14064752124 105.50496923139 62.320031124962 131.33234954775 139.11674581751 133.01721520543 75.740320264223 123.9376041559 100.55881286354 78.940510082971 67.555608117913 40.981842487737 108.4749757718 91.885761505819 223.29450706264 83.979425061956 70.464629159744 67.518730449729 71.472068886211 74.901981099963 110.41642632953 79.252892691791 97.649442152621 118.82363857618 59.870216299331 70.870930474803 215.31777855554 65.775013181469 85.083468811623 74.716390532894 72.818791035928 87.53894847266 88.208960377796 78.445355412457 163.8180878056 98.396683826166 72.390003408678 93.394057669895 80.64553217912 101.12824791119 76.161736916866 94.615811794649 64.786896131251 89.159994245297 57.145205134748 94.640997033905 144.78400983567 111.59435372864 81.851506993127 95.853595535163 78.011289313578 86.674287562976 83.258036655075 54.105911451135 78.768757328486 67.713005830201 104.06408184917 66.158206677387 55.641260496016 125.58006406677 181.92527864722 106.941571363 74.18759277608 68.467527094372 74.13539503227 127.35322166186 133.05544017608 60.133530898273 79.575048657243 93.612950611447 95.449452896293 74.1724406924 91.484994946966 77.056512681275 103.8614131948 55.885008168451 72.307282401522 66.881939363028 59.321447239201 71.310663592074 172.18567863315 93.719080399027 102.04828082882 117.38719778771 119.10022319099 184.78578987634 140.20826753812 160.94265589319 82.9941880807 43.567494861044 109.38773234871 156.98796105748 112.2251582767 43.965647139747 47.731099217658 94.251369301395 306.28263559605 48.61249512604 92.40130654436 81.28835962888 93.284799844828 107.46901967311 86.621821150121 124.33452417656 77.98963855621 63.272214111499 51.705599850986 107.43430336608 76.579203322715 51.219700185695 50.736362720795 87.373543149243 109.26994654775 83.848073836188 74.272980414653 88.290244357198 85.905943974298 85.162729630769 125.37138809027 49.09825783594 91.390331428784 107.27726485961 104.48232453158 83.957253089799 95.049924854903 46.656598698055 82.84274853858 62.03706630868 80.404998964132 66.176650199995 113.35212872417 82.806632111874 105.20632182802 73.429891036507 117.91632681202 92.102913784058 118.3759034495 87.187367553813 90.097346520222 84.251476249244 60.325242364366 84.224840513762 82.860074095808 66.996151166588 92.808553423063 45.448032465948 87.418198405187 60.668081467115 75.723595663589 130.98807366048 106.18576492906 100.74727056785 101.25731082745 69.485847887378 87.32723939245 133.1444506055 132.6633725876 84.069376554367 99.50774962035 218.46203473268 141.96297355204 83.660123995194 168.5124503029 96.90984114859 93.034818027241 98.314735920728 63.348818742136 48.47850732353 96.412062753911 82.597255380561 98.739896510058 86.371227676847 81.293552295643 90.286931652242 115.23506319379 74.679779891998 79.952189363817 120.56227634852 111.64923081453 73.52281477995 83.115466516783 104.41479872576 82.873359575421 88.763241480824 98.611712803339 83.437290035269 91.496117017542 108.34550228332 101.44530588649 82.83696114019 144.54366796872 122.37782245548 85.607105943891 76.875343906179 51.727366679685 85.063686550971 79.26401253576 68.963153488047 62.238632701563 60.298584715358 73.347310070335 70.399177374659 107.116119366 71.312024246815 89.237578425083 81.978102018068 115.26241940886 87.303920442544 108.2866099802 113.18746819812 155.96405436562 105.37965856466 121.15549309729 103.43529111971 85.585350778889 74.334685543715 95.488282006501 90.509163690861 119.64395261366 127.25891018923 87.411885802111 130.15257394048 133.88154700196 94.813287233211 57.140063204889 73.124231115105 130.07863061474 126.31637966742 84.289657348285 89.612770599763 115.63393124886 96.58274583931 92.361472777724 93.255340971639 103.45044134309 118.99016992538 109.24844876114 119.14666018703 105.59567569176 115.4002509867 87.853870065423 157.97797684986 129.32201134062 116.80240794966 82.090662013562 87.771531419991 95.836308120934 89.648247271516 125.06973125084 98.099006285533 96.233674366727 140.52229377131 106.79476997533 137.2243811792 111.96922016445 126.65221058742 107.56605777459 129.95323953333 97.419442041542 115.0849172283 124.32385094943 161.68038449078 156.03472579844 133.45626376904 138.62110114463 128.06258858986 143.61595737553 146.233249276 121.53683645451 117.40773218326 73.968451018374 168.45198769645 109.86042294408 101.34150581579 102.87030861607 76.356709940251 113.81375547446 151.45945465227 128.5047996432 105.93809993509 205.83991912338 211.67020003007 86.805157085409 171.13047168911 77.901350600247 174.37792420054 96.811724573463 95.327309116091 166.80616288286 101.14882284076 147.00293553243 114.14708534114 116.65920382659 88.162122842556 110.04202565044 269.21068120788 107.76725933436 101.58955672858 113.70360753251 146.65612067047 132.15598659483 78.736122716203 338.80021383245 224.22167765857 123.97135637053 207.69448929602 176.77379938955 92.183797149669 86.265551450924 183.79179240566 149.12765518504 147.32456347169 144.1753591623 154.31921510787 171.09502843831 107.85897813727 117.78118439736 88.008039610363 207.76649437558 160.31284677563 147.06661267462 121.97094623827 346.44636803837 156.83177070833 167.69708867304 221.78110313925 105.65615750783 118.97273933129 122.31038795737 331.91746420875 101.76977322557 137.5700426828 98.110575825915 118.96118566849 171.34915410881 116.63715006654 162.14433629708 115.31713486016 135.06029842161 86.866915672525 184.39654004211 135.86230164116 101.17879131547 119.22894336837 120.72239902821 89.872417233042 112.2315051676 288.29462879343 242.05210536549 78.623977345349 106.07213220875 129.03626432646 192.24719565474 100.36627313083 140.06812810802 187.17193818871 94.776218402154 118.11561164498 239.22555771716 173.6563287369 386.79817403983 106.99622768161 102.61872863676 132.07234041077 83.981891594507 164.35604996438 280.19201055077 243.11332032339 139.31521503317 154.69763256514 129.43217383828 240.24477568819 146.98376709353 182.6702415397 290.61399111369 205.06906219471 217.82230773833 183.78977092804 260.48257045669 84.868079264673 214.88274753165 167.03333683709 161.74658668372 210.57498433952 130.19572296572 213.4298073543 164.42249958658 194.33837618906 312.07735751224 262.60008257903 301.59570746842 249.34680460031 195.33636806098 184.87663316277 238.8328869198 161.73858560892 305.97066239684 276.35155143979 276.03973097234 231.99755706179 308.5359086879 172.08996808525 382.70283456951 272.29174573711 312.25788283806 308.52563162428 321.65772234294 219.52128671227 262.75768664043 305.90828444609 314.94869420108 269.69756651294 264.05787390787 353.00958139964 266.16984895089 406.84571123363 208.79970685961 179.23557880313 260.29812480061 320.56452496454 371.34087627614 318.24955983541 323.11631523408 235.34201260441 223.52261618588 313.17884835633 337.09848434661 355.35034250136 
SCALARS Resistivity_(log10) double 1
LOOKUP_TABLE default