# vtk DataFile Version 3.0
d-2__ created by libgimli-v1.5.0-1-g5991b6ac
ASCII
DATASET UNSTRUCTURED_GRID
POINTS 803 double
8.3333333333333	0	0
8.5	-0.29429712828708	0
8.6666666666667	0	0
21.166666666667	-0.35154628884587	0
21.333333333333	0	0
21	0	0
-0.13949540192174	-0.65832226163824	0
0.26765699968102	-1.1941152153012	0
0.50098922076846	-0.451860121227	0
11.833333333333	-0.28867513459481	0
11.666666666667	-0.84084908820295	0
12	-0.57735026571174	0
-1	0	0
-0.82347194173878	-1.6006755924119	0
21.666666666667	0	0
21.5	-0.55217395360815	0
1.1666666666667	-0.35154628884586	0
1.3333333333333	0	0
1	0	0
1.5	-0.55217395360814	0
23.61842901153	-0.60378553647188	0
24.166666666667	-0.55217395360814	0
23.833333333333	-0.35154628884586	0
1.6666666666667	0	0
8.1666666666667	-0.35154628884586	0
1.8333333333333	-0.35154628884586	0
2	0	0
4.8333333333333	-0.35154628884586	0
5.1666666666667	-0.55217395360814	0
5	0	0
2.6666666666667	0	0
2.3333333333333	0	0
2.5	-0.35154628884586	0
2.1666666666667	-0.29429712828708	0
8.4079889429861	-0.75760412093209	0
9.0144333430414	-1.1439190584088	0
8.8333333333333	-0.55217395360814	0
13	0	0
13.166666666667	-0.29429712828707	0
13.333333333333	0	0
3.1666666666667	-0.35154628884586	0
3.5	-0.55217395360814	0
3.3333333333333	0	0
16	0	0
16.166666666667	-0.29429712828708	0
16.333333333333	0	0
3.6666666666667	0	0
3.8333333333333	-0.29429712828707	0
4	0	0
4.3333333333333	0	0
4.1666666666667	-0.35154628884586	0
27	0	0
26.833333333333	-0.35154628884586	0
27.166666666667	-0.55217395360814	0
3	0	0
16.5	-0.35154628884586	0
16.666666666667	0	0
2.8333333333333	-0.55217395360814	0
13.5	-0.35154628884586	0
13.666666666667	0	0
4.5	-0.55217395360814	0
4.6666666666667	0	0
3.9253443903472	-0.75760412093208	0
29.833333333333	-0.29429712828707	0
30.166666666667	-0.35154628884587	0
30	0	0
35.905165514021	-0.87509566217462	0
36.166666666667	-0.35154628884586	0
35.661339523067	-0.61041034021497	0
5.5	-0.29429712828708	0
5.8333333333333	-0.35154628884586	0
5.6666666666667	0	0
5.3333333333333	0	0
27.333333333333	0	0
27.5	-0.35154628884586	0
35.833333333333	-0.29429712828708	0
6.1666666666667	-0.55217395360814	0
6.3333333333333	0	0
6	0	0
37	0	0
37.166666666667	-0.35154628884586	0
37.333333333333	0	0
10.741322276319	-0.75760412093209	0
11.175685896383	-1.113902458684	0
11.166666666667	-0.55217395360814	0
6.5	-0.35154628884586	0
30.795730030397	-1.0103532830333	0
31.229185900173	-0.87228466782526	0
31.000045632922	-0.57199295442671	0
31.666666666667	0	0
31.833333333333	-0.55217395360814	0
32	0	0
40	0	0
40.166666666667	-0.35154628884586	0
40.333333333333	0	0
6.8333333333333	-0.29429712828708	0
7.1666666666667	-0.28872883340808	0
7	0	0
7.2211097499487	-1.0538354750778	0
7.0053271435993	-0.61041034021496	0
6.7615011526461	-0.87509566217461	0
9.5	-0.29429712828707	0
9.3333333333333	0	0
9.1666666666667	-0.28872883340808	0
7.3333333333333	0	0
39.666666666667	0	0
39.833333333333	-0.29429712828708	0
13.674580112811	-1.7184248716052	0
14.353791495618	-2.0265268011931	0
13.958469529133	-1.3940906823913	0
7.6666666666667	0	0
7.8333333333333	-0.55217395360814	0
8	0	0
12.994672856401	-0.61041034021496	0
5.5920110570139	-0.75760412093209	0
5.8348685364776	-1.5356869134354	0
9.8333333333333	-0.35154628884586	0
9.5718321806872	-0.87509566217461	0
10.166666666667	-0.55217395360814	0
7.33337923226	-0.57364431858631	0
10.36828810089	-1.6552861219901	0
6.6666666666667	0	0
36.666666666667	0	0
36.833333333333	-0.29429712828708	0
37.5	-0.55217395360814	0
24.333333333333	0	0
24	0	0
12.503171480364	-0.86507900392268	0
12.328351644367	-1.416191408927	0
12.778890250051	-1.0538354750778	0
11.5	-0.28867513459481	0
19.666666666667	0	0
19.833333333333	-0.35154628884586	0
20	0	0
9.6666666666667	0	0
20.5	-0.28872883340808	0
20.666666666667	0	0
20.333333333333	0	0
20.905165514021	-0.87509566217461	0
10.5	-0.35154628884586	0
10.333333333333	0	0
9.3280061897341	-0.61041034021496	0
10.833333333333	-0.29429712828707	0
10.666666666667	0	0
22.833333333333	-0.55217395360814	0
22.5	-0.72876886968591	0
22.915493514149	-1.1101467813362	0
5.2020787936337	-1.0219070688786	0
18.833333333333	-0.29429712828707	0
18.925344390347	-0.75760412093207	0
19.166666666667	-0.35154628884587	0
22.666666666667	0	0
22.5	-0.35154628884586	0
13.833333333333	-0.55217395360814	0
14	0	0
16.833333333333	-0.55217395360814	0
0	0	0
14.166666666667	-0.35154628884586	0
14.333333333333	0	0
14.5	-0.55217395360814	0
14.833333333333	-0.35154628884586	0
14.666666666667	0	0
15	0	0
15.166666666667	-0.55217395360814	0
15.333333333333	0	0
2.0948344859795	-0.87509566217461	0
2.2850956781966	-0.60378553647187	0
12	0	0
11.666666666667	0	0
22.166666666667	-0.95506458788032	0
22.166666666667	-0.55217395360814	0
21.833333333333	-0.7287688696859	0
15.5	-0.35154628884586	0
15.666666666667	0	0
17	0	0
20.833333333333	-0.29429712828707	0
20.661339523067	-0.61041034021495	0
9	0	0
14.166666666667	-0.72876886968591	0
17.333333333333	0	0
17.166666666667	-0.35154628884586	0
18	0	0
17.666666666667	0	0
17.833333333333	-0.55217395360814	0
17.5	-0.29429712828708	0
16.258677723681	-0.75760412093209	0
12.833333333333	-0.28872883340808	0
18.166666666667	-0.35154628884586	0
18.333333333333	0	0
17.407988942986	-0.7576041209321	0
19	0	0
19.333333333333	0	0
18.666666666667	0	0
12.166666666667	-0.28867513459481	0
12.333333333333	0	0
15.833333333333	-0.55217395360814	0
20.166666666667	-0.55217395360814	0
19.5	-0.55217395360815	0
7.5	-0.28867513958836	0
23.5	-0.29429712828708	0
21.833333333333	-0.35154628884586	0
22	0	0
26.592011057014	-0.7576041209321	0
22.333333333333	0	0
23.934922518609	-1.0280995368212	0
25.166666666667	-0.35154628884587	0
25.5	-0.55217395360815	0
25.333333333333	0	0
23.166666666667	-0.35154628884586	0
23	0	0
26.666666666667	0	0
26.5	-0.29429712828708	0
23.666666666667	0	0
23.333333333333	0	0
26.166666666667	-0.55217395360814	0
26.333333333333	0	0
26	0	0
24.761501152646	-0.87509566217461	0
24.951762344863	-0.60378553647187	0
24.5	-0.35154628884586	0
33.5	-0.35154628884586	0
33.238498847354	-0.8750956621746	0
33.833333333333	-0.55217395360815	0
24.666666666667	0	0
28.166666666667	-0.35154628884587	0
28.5	-0.55217395360815	0
28.333333333333	0	0
25	0	0
24.833333333333	-0.29429712828707	0
27.761501152646	-0.87509566217461	0
27.951762344863	-0.60378553647187	0
29.333333333333	0	0
29	0	0
29.166666666667	-0.55217395360814	0
25.833333333333	-0.35154628884586	0
29.947484315848	-0.62869436758688	0
30.409983486194	-0.76921735210505	0
34.166666666667	-0.72876886968591	0
34.166666666667	-0.35154628884586	0
25.666666666667	0	0
35.445556916718	-1.0538354750779	0
35.333287434407	-0.57364431858632	0
29.666666666667	0	0
29.5	-0.28872883340808	0
26.834868536478	-1.5356869134355	0
30.833333333333	-0.28872883340808	0
30.671365010853	-0.57276869068256	0
27.666666666667	0	0
38.204670056311	-1.4270134762662	0
38.601589185276	-1.0280995368212	0
38.094834485979	-0.87509566217463	0
28	0	0
27.833333333333	-0.29429712828707	0
36.662074300781	-0.56642454030296	0
28.666666666667	0	0
31.746636025369	-1.1187108767801	0
28.833333333333	-0.35154628884586	0
33	0	0
33.166666666667	-0.29429712828707	0
33.333333333333	0	0
34.5	-0.55217395360814	0
34.731644951192	-0.92970615345739	0
35.666666666667	0	0
35.5	-0.28872883340809	0
30.333333333333	0	0
31	0	0
31.166666666667	-0.28867513958836	0
31.333333333333	0	0
38.285095678197	-0.60378553647188	0
37.833333333333	-0.35154628884586	0
30.666666666667	0	0
30.5	-0.29429712828708	0
36.5	-0.28872883340808	0
33.666666666667	0	0
36.41952417611	-0.77749898599357	0
38.5	-0.35154628884586	0
38.833333333333	-0.55217395360815	0
38.666666666667	0	0
29.657657699283	-0.83081436360664	0
40.168201869811	-1.5356869134355	0
40.5	-0.55217395360814	0
39.925344390347	-0.75760412093211	0
32.994672856401	-0.61041034021495	0
31.5	-0.35154628884586	0
43	0	0
42.666666666667	0	0
42.833333333333	-0.29429712828707	0
43.404176293252	-0.42323554094762	0
35.88498281448	-1.5034830799843	0
41.166666666667	-0.29429712828708	0
41.074655609653	-0.75760412093211	0
41.5	-0.55217395360814	0
41	0	0
41.333333333333	0	0
34.333333333333	0	0
32.166666666667	-0.35154628884586	0
32.333333333333	0	0
39.5	-0.55217395360814	0
39.333333333333	0	0
36.500673817427	-1.6307728168531	0
40.833333333333	-0.35154628884586	0
34.666666666667	0	0
35.333333333333	0	0
35.166666666667	-0.28867513958836	0
35	0	0
36.333333333333	0	0
36	0	0
12.333333329009	-0.57732068917697	0
37.666666666667	0	0
7.9035368819631	-1.2622568520387	0
28.737635378193	-1.2311528923644	0
29.212976838479	-1.0424777721347	0
28.833333333333	-0.7287688696859	0
12.66662076774	-0.57364431858631	0
38.166666666667	-0.29429712828707	0
38.333333333333	0	0
12.5	-0.28867513958836	0
39	0	0
39.166666666667	-0.35154628884586	0
20.347766676375	-1.1439190584087	0
19.833333333333	-0.7287688696859	0
40.666666666667	0	0
42.5	-0.35154628884586	0
10	0	0
18.5	-0.55217395360815	0
41.666666666667	0	0
23.428167819313	-0.87509566217462	0
42	0	0
42.166666666667	-0.29429712828707	0
42.333333333333	0	0
42.744785246826	-0.77776727251482	0
41.833333333333	-0.35154628884586	0
38	0	0
41.542494325991	-1.1832128457714	0
2.6015891852757	-1.0280995368212	0
13.258353909981	-1.6064355191183	0
4.8333333333333	-0.72876886968591	0
15.5	-0.7287688696859	0
15.8687454603	-1.0219070688786	0
16.501535203144	-1.5356869134354	0
14.833333333333	-0.72876886968591	0
12.666666666667	0	0
17.797921206366	-1.0219070688786	0
18.166666666667	-0.7287688696859	0
36.905165514021	-0.87509566217463	0
32.666666666667	0	0
32.5	-0.55217395360814	0
34.833333333333	-0.28867513459481	0
34.999999995676	-0.57732068917696	0
34	0	0
35.169838147031	-0.8650790039227	0
42.285095678197	-0.60378553647188	0
41.877780449001	-0.80261564071807	0
13.238498847354	-0.87509566217461	0
11.333333333333	0	0
11.697267761921	-1.4738194081615	0
12.166692603518	-0.86967323340335	0
3.1666666666667	-0.72876886968591	0
11	0	0
18.535412126967	-1.0219070688787	0
25.833333333333	-0.7287688696859	0
25.268255851942	-1.0280995368211	0
28.268255851942	-1.0280995368211	0
[...]
CELL_DATA 1424
SCALARS Coverage double 1
LOOKUP_TABLE default
2.8783877134259 3.1122551204749 2.0305167587532 2.6211260130207 1.8269132736247 2.9879546067733 2.7948326691243 2.3222442181457 2.7657162243191 2.5928283743164 2.8350693293788 2.4346606301891 2.8252463040829 2.6514029669523 2.6714028555029 2.5957575315747 2.4794349327944 3.1974765362039 2.6371824291033 3.1954441329239 3.2562154413769 3.2257162270097 2.9379045582083 2.9504369115039 2.9596287409321 2.93081281774 2.9551271536217 2.8556229417104 2.5237154352268 2.9377023410024 2.9691168347045 2.6458938780946 2.7673737498294 2.9420360445843 2.9264352450387 2.7461311692504 2.9755583944259 3.2855186603104 2.4952888326247 2.7510207248497 2.6434322552188 3.0095713733878 3.1545280994327 3.2306251908201 2.8163402544992 2.4431658686234 2.8693252401806 3.2397442763022 3.2415472015932 2.1052142126522 2.9726379358185 3.0532451705725 2.7111407623113 2.3469786527755 2.80507098545 2.6251348119338 2.4926350582756 2.4137219330535 2.8746536914717 2.9372197124094 3.3024197047356 2.8735969510758 3.1294634441145 2.3523907970266 2.6322911427801 3.0929064471823 2.9834253203092 2.9219278763402 2.6776137666963 2.8025271614843 2.9264814965488 2.7275657959819 2.8376096778286 2.6029728546957 2.4017085676954 2.7384713857215 2.8669730961737 2.7827543919474 2.4476243172896 3.0405188165407 2.8067634966535 2.5564625242503 2.7379158156385 3.0745048692659 2.591475382326 2.794907491909 3.0214052558695 2.8602821358742 2.8597804164787 2.3218608729718 2.799213243853 2.4250337419414 3.0585848641956 2.6290248777602 2.5102587570649 2.9489966782056 2.3479917681825 3.0530796587335 2.7557426002155 3.0027548281408 2.6571877209546 3.073611862627 2.676850499621 3.011882274484 2.8554282875004 2.7110555063114 2.8188935164997 2.7492118967513 2.8281110432695 3.0400786069031 2.6659903133264 3.2151610664608 3.2581348751191 3.0643427668623 2.6662365782486 2.8733636227966 3.1305900275276 2.8248522038956 3.1486663091227 2.8824624123875 2.7732538292209 2.8970936281945 2.9498541254705 2.8145502175405 2.747440785979 3.0627987538461 2.7690131382052 2.7872561458433 2.9043665119455 2.8271200278553 3.2982290113096 2.7589289349641 3.04689669091 3.2450308466757 2.6422332296018 2.9368621197169 2.8850343769579 2.9722091673641 3.1877689875415 2.9314485704175 3.1633451363328 3.1073145209452 2.7275647158208 2.7268196129437 3.080988207066 2.9549720657568 3.3695722756647 2.9798053867175 2.7478067323942 3.1893557785645 2.8743774318003 2.7615573851094 3.0225687775371 3.210388610618 2.7821279986965 3.1875810026343 2.5847230134478 3.0593596827009 2.9965524999121 2.8763344900713 2.5680326725818 2.8154923308505 3.103235864894 2.2970667660578 3.3645729622492 2.9877982818398 2.7504888164197 3.0810113521194 2.6177917673884 2.8917012582481 3.2249758312959 3.1794788805357 2.9112644095127 3.1929625073531 2.6583116674022 2.9191276167199 2.66493599173 3.1909409197448 3.2133341012932 3.3607011887296 2.6026491817121 3.0939866979393 2.9623546034729 3.0969909980853 2.970338287149 2.8760598468295 2.7263216078185 2.7590085545018 2.7635827603563 2.395620953066 2.7990910325906 2.7617559505756 2.9116603303331 2.9155268399518 3.0876853735456 2.2360156190741 2.4166785792949 2.8163330557923 2.4739162826242 2.9752628035694 2.9433264015662 2.8151204438201 3.1793262331404 2.9009982136514 2.2933521176423 2.5190297969158 2.6340449377442 3.0615855170527 2.7255267241822 2.9699468418659 3.197492375206 2.9506678124102 2.6706215413124 3.1167163982567 2.6813926369665 2.9685289416469 2.8168284699909 2.7066975949645 2.7518046825674 2.4360602413697 2.86911499173 2.5755572886433 2.5432166123379 2.6658744776124 2.4922858789146 2.8316768567522 2.8626026191767 3.054845202765 2.8746735434526 2.7635000612855 3.0482079026071 3.1004102170872 2.5580390585775 2.8681954831663 2.5391273105167 2.9011653294259 2.7284465797069 3.2007134144828 2.9384049762196 2.9550119492173 2.8788431418099 2.6727110472541 2.7035056860431 2.8765832241818 2.6953832787563 2.963391535476 2.8859039800613 2.2239759925693 2.7349991627788 2.7491675011156 2.981624937051 2.5847104118314 2.7369766817311 2.6554819771569 2.792358629107 3.0826820574504 2.6814418111096 2.8633771602713 2.3080855712575 2.4551981551376 3.1518551989353 2.3167170594143 2.6251517594256 2.7938607486116 2.573564434119 2.812423897303 2.5460365517599 2.6103220477704 2.7335750027967 2.2494043886037 2.5618681845159 2.6651727916 2.54456313368 2.5587112680621 2.4681745533749 2.666785663458 2.7847339605311 2.8079927578575 2.654094234772 2.6540442816097 2.7986829606221 3.197422560265 2.8941848666202 2.5389636668271 2.6808790896539 2.6651737383846 2.7949763924313 2.7129257892273 2.8079228326673 2.8346285331407 2.6849205543017 2.8021742392433 2.8228513041443 3.3831014538941 2.862618862613 2.9321356256617 2.7789465504959 2.8208514074156 2.8463993769936 3.372032254506 2.8747749266775 3.0379162408802 2.7803884924412 2.5774518246387 2.9694193526466 2.7855591190415 2.8274912497528 3.3604442034652 2.9589830097586 2.9684435040794 2.9474757101011 3.327017452271 2.691270672531 2.7983554344141 2.6105695431249 2.3822475072408 2.911930208558 2.6123694659756 2.6667044517568 3.0870495423611 2.7071855136557 3.0271096879811 2.8320136009106 2.9849003616483 2.3593554708251 2.4012570829423 2.5847957515942 2.5559744872009 2.6423752267996 2.7555714792364 2.5746094064835 2.4988667095938 2.6283293684824 2.8451337020532 2.8011825224569 2.9109564307768 2.366743605381 2.2419361629995 2.8872496307052 3.2378643374514 2.9719074427576 2.8266325965483 2.6652425339543 2.6921709764011 2.6315120949962 2.8064045874419 2.6973680674644 2.8799085616444 2.7139399378615 2.6983693690445 2.9400237293764 2.5344594974473 2.2880533286459 2.5848103806143 2.5056808763506 2.3448719460789 2.7190378543795 2.710256277544 2.4095571262391 2.9527457538635 2.6395264895415 2.4939728331695 2.5489610704104 2.6810960697043 2.5783217898391 2.659490363996 2.3938755892992 2.9048967378708 2.7871095663389 3.0156262544907 2.7271579662042 2.6662411507793 2.6971660954423 2.9335733765164 2.8033517861823 3.0293892590817 2.7596133637834 2.9472149193151 2.9166671812993 2.6803097290551 2.7635519427892 3.0330091999706 3.2054551247735 3.1446968810318 2.6097328919661 2.7823221501042 2.8234596364672 2.900158766044 2.5613371131431 2.7639600853598 2.9066600824388 2.7073249523719 2.6092868350302 2.8219665399585 2.6361706172957 3.3757301022664 2.484517467398 2.5099697711481 2.3730945895319 2.6005246356849 2.2692854085607 2.462575700869 2.3073811704468 2.3670724489881 2.5788781601182 2.3382334286753 2.3118945885414 2.8804281874929 2.4718351457537 2.5514177990009 2.6191481779636 2.7072314772877 2.5666986537381 2.6806304994772 2.5240729593321 2.7441036848391 2.6814571624079 2.2768192918059 2.5237999819681 2.5469266681421 2.3790014535322 1.9737994408258 2.5341228926515 2.6023889594682 2.7892836900168 2.6448910651794 2.7982205963152 2.6608275158781 2.1954731602321 2.7775074776818 2.6092930876722 2.7498217322923 2.5573009639906 2.8687290980306 2.5766709426794 2.9094589748278 2.5885208331387 2.2582718309314 2.2619308180253 2.734500901849 2.7310680299653 2.8127100642604 2.5821847886376 2.4204537878058 2.2249278150971 2.8299123912153 2.6254387736439 2.8500693008929 2.6426230738368 2.7043934581094 2.450378738384 2.4486894739846 1.8969317218112 2.570993439859 2.409966996986 2.0508927625186 2.1917640046838 2.4094452961058 2.4685584058247 2.4939030240412 2.5398960525482 2.9131274050274 2.4462641214193 2.2331370541415 1.9136047169871 2.1697363822571 2.6312662066378 2.385991067218 2.4269727526932 2.0446927202721 2.6955989252062 1.7956189813288 2.7466961669345 2.523560947852 2.5542104621682 2.493899638328 2.7817820063135 3.244853918247 2.3773556961084 3.0692567678852 2.5511265494718 2.5599742614476 2.5634159560601 2.6490442935348 2.3813201026477 2.6146883161016 2.5526445116628 2.5716755957969 2.2246321802777 2.6510632954468 2.4579056334455 2.6774220908508 2.0708385614844 3.0771385939088 2.5526456129972 2.4852362303771 2.2899636231005 2.3938562258639 2.5305835179798 2.6606579665248 3.0165168454936 1.6965350842252 2.6926894357249 2.6380751164205 2.3398066606484 2.4563415697473 2.0199086983228 2.1360237938708 2.5646229982266 2.2621152887652 1.8426715169667 2.4824512579738 2.3503159964357 2.8187099247399 2.0782011464 2.309173981295 2.2982065865102 2.3774590745667 2.0768544860217 2.0869259239016 2.4881908135413 2.6605916514983 2.4876827100339 2.4382117315587 2.2934338498084 2.3330659973197 1.976535260032 2.4910975685716 2.2053363327683 2.1958926812579 2.504269021043 2.3890671026859 2.5934732284031 2.3606961390043 2.1355786887123 2.5221125763432 1.8232299688608 2.1625685359338 2.4225299602704 1.6218282302773 2.269342928509 2.2566821950345 2.5638271782369 2.3528135470696 1.7635833476497 2.5719260466246 2.5476550419083 2.6251045697483 2.6438060508875 2.482043862402 2.3860756006234 2.4663135135441 2.4433765563238 2.4546127393867 2.0838301696856 1.9687041360373 2.6416882745642 2.5244407914818 2.3176594045036 2.4026401997438 2.3354537393571 2.6981421314875 2.408891697805 2.2444180618309 2.2221325470006 2.2609711901807 2.3768238109235 2.5559598623385 2.957164904278 2.6319364194659 2.0001921906577 2.475036381781 2.8451371311361 1.9674694719058 2.4023174116188 2.4065751127133 2.2899692897195 2.2857094771392 2.6510183370602 3.0304527968796 2.375600086881 2.3251520720642 2.3207713411581 2.3772940613884 2.7329990373909 2.4710048833202 2.1525324459508 2.1382312526258 1.6560964073562 2.0930810962113 2.1832132279003 1.7721110977531 2.7819500778886 2.6512666671902 2.3263850045339 2.2520312703053 2.7133347190564 2.6210656764706 1.9479051118893 1.3122991777647 2.2547899727478 2.315074606546 2.1146527412255 2.8215900960311 2.0430540630306 1.999078418024 2.5418433750941 2.7424488652616 2.4174015493118 2.2954021591531 2.3987066415311 2.3333419327095 2.1369944278998 2.4635705948827 2.1489336027334 2.3419882726608 2.4855738366221 3.2025236336426 2.1400493081002 1.9609191179069 1.9295039060775 2.1694187194004 2.0742493678685 1.9154055117255 2.1715676933647 2.2225845263953 2.296906702763 2.0254442183287 1.9618409973866 2.5247103980057 2.4156780111172 2.5975651468335 2.2953926649288 1.8015691265678 2.3850544880863 1.6853064705448 1.5577434309076 1.8491846560449 2.3280336061841 2.704029697126 1.965384024506 2.7203473590069 2.1055609170303 2.1633767788918 1.9575342069041 2.2708785287605 1.9607362346233 2.5297698904018 1.8857078438295 2.2392512810124 2.0589861128685 1.6250845402736 2.0794565839171 2.1327299522998 2.2478903608797 2.20286675466 2.2726649565117 2.0443320535854 2.366192668424 2.7743161395276 2.0063555807245 2.2840821280573 2.2011056461486 2.1666086834247 2.3399871566096 2.0881186071686 2.0882645235857 2.6609965759981 2.4353508944756 2.1337859385134 2.8660859612754 1.5613826485432 2.0092707553025 2.6842220361987 2.0596333708761 2.2899947559946 1.2874398160812 2.0287597149003 2.7718135372738 2.156601469726 1.8357067789259 1.8898350476891 2.2739982677636 2.1202692909792 1.8595761232208 2.1404736991844 1.9381674066223 2.0864186551809 1.9325718806351 2.3136053285827 2.0298312338708 1.9028248163462 2.1205430417012 2.056815748604 2.1268828896051 1.9915186056592 2.0087361109781 2.9047768160426 1.9912453431131 2.1059576894989 2.304422080188 2.1397528535043 1.9787578989001 2.2113378336134 1.7091006794464 1.9115909182139 1.7869728141429 1.8641006662873 2.0330157207538 2.7264110649252 2.2983799852399 1.9422959544758 1.6972074350284 2.3704004489225 2.0518910686239 1.3653661440712 1.8124911384112 0.57715789831944 0.74440685749188 1.9732019391405 1.915622450379 1.8098772018576 1.3622123470989 2.1231954008224 0.85562530323726 2.5350550104377 2.6779865205487 1.9207866790349 1.4118689514679 1.2057434123503 1.7993409190347 2.5217567220388 1.631416432992 1.8161561955629 1.8080162708862 2.4229592726684 1.7657161463975 1.8334192275082 1.9650667483692 1.645395449237 2.1115983782693 1.9031923886986 2.0596889222549 2.0210277706829 2.07524549512 1.86627719378 1.6244090174147 1.9935951754726 2.2742486383343 1.528766791613 2.4663218405957 2.6146201109098 2.4791277219736 1.8349261046974 2.297170601195 1.6272368304753 1.6430872460424 1.698723382835 1.6861851414645 1.9218888535609 2.0726068549374 2.1100313582198 2.9122324618001 1.7149824448112 1.6442492300643 1.506327125892 1.5721886502847 2.3701639742679 1.9208705928727 1.7353864372305 1.9247130470547 1.6839525167256 1.3503331790316 1.3391581264164 1.912579261982 1.53566095835 1.4659485881542 1.5368325091191 1.7927565079351 2.206009571596 1.2363802449128 1.8404636487644 1.2060791153816 1.4808936916512 1.6118670874201 1.9755590307729 1.7376956973511 2.1990557672921 2.001807105795 1.978467264505 2.0765345040872 1.6465536238065 1.8271523897941 1.8468808661559 1.7176413772328 1.8025063034183 1.907329407141 1.4848799030698 1.9864051233716 1.719191995306 1.6217643487599 1.7579407022789 1.8172648724252 1.8324483513451 1.1483788084056 1.9659751743641 1.627255676857 1.7443689331301 1.5061521399209 1.748026922385 1.4689341809842 1.4296392909336 1.6182537191675 1.6547610941703 1.4638792000969 1.678617883564 1.5780143784214 1.3473305819382 1.4807314379383 1.5035721699682 1.1692139108234 1.6534624457389 1.2645052605286 1.683148624127 1.5203490981312 1.5475161417083 1.2750942407548 1.3527002416549 0.93198244336624 1.2211016058431 1.4423904342117 1.2590306771961 1.1678036517588 1.4632781978652 1.365208008561 1.5331703444055 1.0827138391428 1.6959153854048 1.8758232933485 2.0254321325981 1.6423932275926 1.4203421521766 1.4749785056748 1.5692300159081 1.4085794192147 1.3092418643149 1.8634600429538 0.93997245436671 1.4659276007837 1.6530841129499 1.7407454300512 1.6448657668666 1.5376465908596 1.4258627114993 1.4198458925005 1.2001652448754 1.0854122152776 1.2578417494691 1.4369148426578 1.3133095450592 1.4621607972798 1.1067990671244 1.73898257206 1.3829725681869 1.6688725374222 1.7389695955389 1.3222567003811 1.2953771850401 1.5620463704266 1.5691174818251 1.2659879412951 1.398543970559 1.3160185290259 1.4477943843704 1.3216994628754 0.78516182000068 1.2157254240696 1.5000782068272 1.242939346466 1.0196377281693 1.4326398526369 1.2923517253426 1.2256755570185 1.1265261408914 1.4339676911027 1.0614791849239 1.1785295318804 1.2035052738314 1.2018937525594 1.0217984307487 1.1296632480751 0.69099300234641 0.8858530360221 1.0292185093486 0.89766228206504 1.2420938736968 1.3083729193114 1.2082121176235 0.965738167507 0.73911783507666 1.0419151126807 1.0845227420705 1.5772626159356 1.2091275196431 1.0755320515944 0.96852317823831 1.1537120206836 0.99185569891279 1.2068654730047 0.43449665852622 1.0895107903817 1.4704308033633 0.89564232124211 1.0773419095096 0.70652009835052 0.7787824462966 1.0084717780787 1.2291338090909 0.8700132154134 0.9136325234874 0.91282087440691 0.62986704705001 0.90014132471899 0.45252939560526 0.39508712742339 0.44688413528221 0.58561822528472 0.76440626374728 0.82708890281843 0.80539328555122 0.70276572958874 0.75231785790386 0.83824020146895 0.85443133178565 0.41721865757037 0.72419638143655 0.94599595932177 1.6583306457422 1.6247861890913 1.1423840977737 1.3226570142583 1.0631913838466 1.1780056154845 1.1415540611859 0.6591959704044 0.7673567436145 0.63670732533138 0.64105615431275 0.63541699724148 0.76358955949241 1.0429099023282 0.64482614893728 0.60333379584272 0.72664496849217 0.83053309387175 0.55139163847971 0.53576840044875 0.78246651761695 1.4592031349962 0.74999287046274 1.4365442767076 1.1281424574065 1.4685472384928 1.487612515347 1.3635343802189 1.325376506682 1.1334588009773 1.2446194471509 1.2440975606063 0.79803146292965 0.6552166098092 0.47476676205161 0.40818410544864 0.41436336480292 0.86392468087979 1.1607830554454 1.0622411946643 1.3284222931762 0.76498558784729 0.85517195202311 0.94898575687172 1.2753428046832 0.99053420822466 1.2274080853874 1.0833493001854 0.90366251331415 0.76416737955313 0.68630161903715 0.52625865909681 0.78709566557929 0.44671073637369 1.0249313514645 1.0333546646804 1.4209763719987 1.1343480940518 1.2366027513713 1.2174267642292 1.4685769149083 1.0327391066522 0.96297772355286 0.60001457982441 0.92742612003158 0.86420334858132 0.93156674082951 0.90304750430611 1.079985626954 0.50510062342448 0.64192977195005 0.694110313842 0.57109113472655 0.77824968872893 0.44946207715447 0.53848436426626 0.80562751878488 0.89525810475409 1.0314876837716 0.65112098929565 1.1410558613673 0.73061705735813 1.3186763300934 0.97146121571726 0.74177974438738 1.1241860195049 0.91769042637136 1.0783466448878 1.0115262410714 0.49907056459908 0.4134085019578 1.0672888666469 0.70326439461778 0.72718819403095 0.61441224127472 0.65419538648879 1.1032128569153 0.49820410895156 0.64828252504942 0.8290176056872 0.70655597680623 0.95847735492665 0.88579779612678 0.57867025898197 0.46926905385096 1.0980145384885 1.025944506199 1.1711236176094 0.86670972332986 0.92049774573407 1.0166535918461 0.93817335616492 0.76452477425679 0.83722486623318 0.94925585754152 0.5598896533118 0.43800025827843 0.81294805803732 0.50932951362954 0.76579205535717 0.77517253640012 0.38982179452655 0.50183052060767 0.55073403186184 0.61507925649413 0.84825284288629 0.9528553415992 0.76228554575983 0.45461589894836 0.86144519445395 0.44103925865999 0.43509712983654 1.0362558323936 0.5278265769511 1.3368971537327 1.1648256544547 0.72179732363562 0.77418761885036 0.50162536723808 1.1306285516897 0.62562775152374 0.56546745145807 1.6527319410634 1.3060002853935 0.60391962334847 0.75543636628658 0.69509889854256 0.49468613376548 0.45515021036266 0.49916375641544 0.41050408586258 0.54881985557984 0.40715450824121 0.47028421929102 0.52748525277018 0.72065047711858 0.5905466943383 0.52852464535482 0.40974147548227 0.65769792740126 0.45035083237197 1.6222701615364 1.2848716217471 1.1276072333942 1.0152275823313 0.46798624395443 0.52402701084182 0.60289800499527 0.44138588063024 0.42225405211193 0.57747382700009 0.9430404335863 0.72278218051292 0.68690949668435 0.56753312065009 0.41485460102937 1.1361873711647 0.82280781648001 0.55998054705186 0.42520085419465 0.60515192142171 0.46890856222902 0.49605226120977 0.41360750537682 0.43189992134874 0.57151234774077 0.72540274330857 1.1159023711252 0.64092086203773 0.58964457015197 0.68332860559609 0.78768370521612 0.71574284707664 0.41105288978681 0.6453599189189 0.78947516203311 0.85121225936661 0.89178295322553 0.96086546708562 0.90459014318274 0.80454320625256 0.74132154668955 0.86243941155652 0.62018116921875 0.65877554821363 0.59436280597008 0.84484153607459 0.45038086279766 1.0978701147336 0.79775020450351 1.2531571153869 1.1094385769287 0.71381675185196 0.67378086028925 0.71133084161541 0.54439099871663 0.63479762810989 0.40655271148267 0.87047498409737 0.63419927391371 0.73199816482632 0.86623503350799 0.77677664155109 1.1114024836798 0.6551636246894 0.69447767791575 0.77895222888914 0.75268293693397 0.63815460749894 0.4687404111447 0.53663347555699 0.89600751895805 0.68815010818077 0.93331621006018 1.0225952291451 1.0180375894264 1.4161850776194 0.41200548022811 0.5585165871609 0.89458710279215 1.0375238023624 1.5142799925265 1.3815424909823 0.81691195053889 0.70019822085092 1.8017993923943 1.6219524610484 1.3517295337319 1.5355959672787 1.2983921391144 0.74209134712719 1.5888347672997 1.3300943324633 1.1920127701943 1.2908775623623 1.1004917440142 0.85921425491552 0.94561221329829 1.0942134175673 0.91743750269363 0.93384146420708 0.84239304076461 1.2168536635388 1.4908659151351 2.0085589309311 1.6903776925122 1.431172749903 1.2113459962102 1.1172361083993 0.68981332618189 1.1931743732903 0.98194928735061 1.2789542285131 1.0095800588943 0.97895372842227 0.81845768239231 1.1285609937458 0.7820622833062 0.72747441920657 1.0606174821849 1.9443940005167 1.8027565845881 1.930936820904 1.5444310932285 1.0193860170053 1.2612608938041 1.3932203361413 1.3271306217404 1.271517296194 1.2283602312965 1.238117580659 1.3719504342165 1.1366838726345 0.93353703534148 1.7929757958501 1.5932200902396 0.66047664271009 0.37049549400966 0.53375397110727 0.43789120756125 1.2294838563299 1.4721249742698 0.4996035338654 0.436