# vtk DataFile Version 3.0
d-2__ created by libgimli-v1.5.0-1-g5991b6ac
ASCII
DATASET UNSTRUCTURED_GRID
POINTS 803 double
8.3333333333333	0	0
8.5	-0.29429712828708	0
8.6666666666667	0	0
21.166666666667	-0.35154628884587	0
21.333333333333	0	0
21	0	0
-0.13949540192174	-0.65832226163824	0
0.26765699968102	-1.1941152153012	0
0.50098922076846	-0.451860121227	0
11.833333333333	-0.28867513459481	0
11.666666666667	-0.84084908820295	0
12	-0.57735026571174	0
-1	0	0
-0.82347194173878	-1.6006755924119	0
21.666666666667	0	0
21.5	-0.55217395360815	0
1.1666666666667	-0.35154628884586	0
1.3333333333333	0	0
1	0	0
1.5	-0.55217395360814	0
23.61842901153	-0.60378553647188	0
24.166666666667	-0.55217395360814	0
23.833333333333	-0.35154628884586	0
1.6666666666667	0	0
8.1666666666667	-0.35154628884586	0
1.8333333333333	-0.35154628884586	0
2	0	0
4.8333333333333	-0.35154628884586	0
5.1666666666667	-0.55217395360814	0
5	0	0
2.6666666666667	0	0
2.3333333333333	0	0
2.5	-0.35154628884586	0
2.1666666666667	-0.29429712828708	0
8.4079889429861	-0.75760412093209	0
9.0144333430414	-1.1439190584088	0
8.8333333333333	-0.55217395360814	0
13	0	0
13.166666666667	-0.29429712828707	0
13.333333333333	0	0
3.1666666666667	-0.35154628884586	0
3.5	-0.55217395360814	0
3.3333333333333	0	0
16	0	0
16.166666666667	-0.29429712828708	0
16.333333333333	0	0
3.6666666666667	0	0
3.8333333333333	-0.29429712828707	0
4	0	0
4.3333333333333	0	0
4.1666666666667	-0.35154628884586	0
27	0	0
26.833333333333	-0.35154628884586	0
27.166666666667	-0.55217395360814	0
3	0	0
16.5	-0.35154628884586	0
16.666666666667	0	0
2.8333333333333	-0.55217395360814	0
13.5	-0.35154628884586	0
13.666666666667	0	0
4.5	-0.55217395360814	0
4.6666666666667	0	0
3.9253443903472	-0.75760412093208	0
29.833333333333	-0.29429712828707	0
30.166666666667	-0.35154628884587	0
30	0	0
35.905165514021	-0.87509566217462	0
36.166666666667	-0.35154628884586	0
35.661339523067	-0.61041034021497	0
5.5	-0.29429712828708	0
5.8333333333333	-0.35154628884586	0
5.6666666666667	0	0
5.3333333333333	0	0
27.333333333333	0	0
27.5	-0.35154628884586	0
35.833333333333	-0.29429712828708	0
6.1666666666667	-0.55217395360814	0
6.3333333333333	0	0
6	0	0
37	0	0
37.166666666667	-0.35154628884586	0
37.333333333333	0	0
10.741322276319	-0.75760412093209	0
11.175685896383	-1.113902458684	0
11.166666666667	-0.55217395360814	0
6.5	-0.35154628884586	0
30.795730030397	-1.0103532830333	0
31.229185900173	-0.87228466782526	0
31.000045632922	-0.57199295442671	0
31.666666666667	0	0
31.833333333333	-0.55217395360814	0
32	0	0
40	0	0
40.166666666667	-0.35154628884586	0
40.333333333333	0	0
6.8333333333333	-0.29429712828708	0
7.1666666666667	-0.28872883340808	0
7	0	0
7.2211097499487	-1.0538354750778	0
7.0053271435993	-0.61041034021496	0
6.7615011526461	-0.87509566217461	0
9.5	-0.29429712828707	0
9.3333333333333	0	0
9.1666666666667	-0.28872883340808	0
7.3333333333333	0	0
39.666666666667	0	0
39.833333333333	-0.29429712828708	0
13.674580112811	-1.7184248716052	0
14.353791495618	-2.0265268011931	0
13.958469529133	-1.3940906823913	0
7.6666666666667	0	0
7.8333333333333	-0.55217395360814	0
8	0	0
12.994672856401	-0.61041034021496	0
5.5920110570139	-0.75760412093209	0
5.8348685364776	-1.5356869134354	0
9.8333333333333	-0.35154628884586	0
9.5718321806872	-0.87509566217461	0
10.166666666667	-0.55217395360814	0
7.33337923226	-0.57364431858631	0
10.36828810089	-1.6552861219901	0
6.6666666666667	0	0
36.666666666667	0	0
36.833333333333	-0.29429712828708	0
37.5	-0.55217395360814	0
24.333333333333	0	0
24	0	0
12.503171480364	-0.86507900392268	0
12.328351644367	-1.416191408927	0
12.778890250051	-1.0538354750778	0
11.5	-0.28867513459481	0
19.666666666667	0	0
19.833333333333	-0.35154628884586	0
20	0	0
9.6666666666667	0	0
20.5	-0.28872883340808	0
20.666666666667	0	0
20.333333333333	0	0
20.905165514021	-0.87509566217461	0
10.5	-0.35154628884586	0
10.333333333333	0	0
9.3280061897341	-0.61041034021496	0
10.833333333333	-0.29429712828707	0
10.666666666667	0	0
22.833333333333	-0.55217395360814	0
22.5	-0.72876886968591	0
22.915493514149	-1.1101467813362	0
5.2020787936337	-1.0219070688786	0
18.833333333333	-0.29429712828707	0
18.925344390347	-0.75760412093207	0
19.166666666667	-0.35154628884587	0
22.666666666667	0	0
22.5	-0.35154628884586	0
13.833333333333	-0.55217395360814	0
14	0	0
16.833333333333	-0.55217395360814	0
0	0	0
14.166666666667	-0.35154628884586	0
14.333333333333	0	0
14.5	-0.55217395360814	0
14.833333333333	-0.35154628884586	0
14.666666666667	0	0
15	0	0
15.166666666667	-0.55217395360814	0
15.333333333333	0	0
2.0948344859795	-0.87509566217461	0
2.2850956781966	-0.60378553647187	0
12	0	0
11.666666666667	0	0
22.166666666667	-0.95506458788032	0
22.166666666667	-0.55217395360814	0
21.833333333333	-0.7287688696859	0
15.5	-0.35154628884586	0
15.666666666667	0	0
17	0	0
20.833333333333	-0.29429712828707	0
20.661339523067	-0.61041034021495	0
9	0	0
14.166666666667	-0.72876886968591	0
17.333333333333	0	0
17.166666666667	-0.35154628884586	0
18	0	0
17.666666666667	0	0
17.833333333333	-0.55217395360814	0
17.5	-0.29429712828708	0
16.258677723681	-0.75760412093209	0
12.833333333333	-0.28872883340808	0
18.166666666667	-0.35154628884586	0
18.333333333333	0	0
17.407988942986	-0.7576041209321	0
19	0	0
19.333333333333	0	0
18.666666666667	0	0
12.166666666667	-0.28867513459481	0
12.333333333333	0	0
15.833333333333	-0.55217395360814	0
20.166666666667	-0.55217395360814	0
19.5	-0.55217395360815	0
7.5	-0.28867513958836	0
23.5	-0.29429712828708	0
21.833333333333	-0.35154628884586	0
22	0	0
26.592011057014	-0.7576041209321	0
22.333333333333	0	0
23.934922518609	-1.0280995368212	0
25.166666666667	-0.35154628884587	0
25.5	-0.55217395360815	0
25.333333333333	0	0
23.166666666667	-0.35154628884586	0
23	0	0
26.666666666667	0	0
26.5	-0.29429712828708	0
23.666666666667	0	0
23.333333333333	0	0
26.166666666667	-0.55217395360814	0
26.333333333333	0	0
26	0	0
24.761501152646	-0.87509566217461	0
24.951762344863	-0.60378553647187	0
24.5	-0.35154628884586	0
33.5	-0.35154628884586	0
33.238498847354	-0.8750956621746	0
33.833333333333	-0.55217395360815	0
24.666666666667	0	0
28.166666666667	-0.35154628884587	0
28.5	-0.55217395360815	0
28.333333333333	0	0
25	0	0
24.833333333333	-0.29429712828707	0
27.761501152646	-0.87509566217461	0
27.951762344863	-0.60378553647187	0
29.333333333333	0	0
29	0	0
29.166666666667	-0.55217395360814	0
25.833333333333	-0.35154628884586	0
29.947484315848	-0.62869436758688	0
30.409983486194	-0.76921735210505	0
34.166666666667	-0.72876886968591	0
34.166666666667	-0.35154628884586	0
25.666666666667	0	0
35.445556916718	-1.0538354750779	0
35.333287434407	-0.57364431858632	0
29.666666666667	0	0
29.5	-0.28872883340808	0
26.834868536478	-1.5356869134355	0
30.833333333333	-0.28872883340808	0
30.671365010853	-0.57276869068256	0
27.666666666667	0	0
38.204670056311	-1.4270134762662	0
38.601589185276	-1.0280995368212	0
38.094834485979	-0.87509566217463	0
28	0	0
27.833333333333	-0.29429712828707	0
36.662074300781	-0.56642454030296	0
28.666666666667	0	0
31.746636025369	-1.1187108767801	0
28.833333333333	-0.35154628884586	0
33	0	0
33.166666666667	-0.29429712828707	0
33.333333333333	0	0
34.5	-0.55217395360814	0
34.731644951192	-0.92970615345739	0
35.666666666667	0	0
35.5	-0.28872883340809	0
30.333333333333	0	0
31	0	0
31.166666666667	-0.28867513958836	0
31.333333333333	0	0
38.285095678197	-0.60378553647188	0
37.833333333333	-0.35154628884586	0
30.666666666667	0	0
30.5	-0.29429712828708	0
36.5	-0.28872883340808	0
33.666666666667	0	0
36.41952417611	-0.77749898599357	0
38.5	-0.35154628884586	0
38.833333333333	-0.55217395360815	0
38.666666666667	0	0
29.657657699283	-0.83081436360664	0
40.168201869811	-1.5356869134355	0
40.5	-0.55217395360814	0
39.925344390347	-0.75760412093211	0
32.994672856401	-0.61041034021495	0
31.5	-0.35154628884586	0
43	0	0
42.666666666667	0	0
42.833333333333	-0.29429712828707	0
43.404176293252	-0.42323554094762	0
35.88498281448	-1.5034830799843	0
41.166666666667	-0.29429712828708	0
41.074655609653	-0.75760412093211	0
41.5	-0.55217395360814	0
41	0	0
41.333333333333	0	0
34.333333333333	0	0
32.166666666667	-0.35154628884586	0
32.333333333333	0	0
39.5	-0.55217395360814	0
39.333333333333	0	0
36.500673817427	-1.6307728168531	0
40.833333333333	-0.35154628884586	0
34.666666666667	0	0
35.333333333333	0	0
35.166666666667	-0.28867513958836	0
35	0	0
36.333333333333	0	0
36	0	0
12.333333329009	-0.57732068917697	0
37.666666666667	0	0
7.9035368819631	-1.2622568520387	0
28.737635378193	-1.2311528923644	0
29.212976838479	-1.0424777721347	0
28.833333333333	-0.7287688696859	0
12.66662076774	-0.57364431858631	0
38.166666666667	-0.29429712828707	0
38.333333333333	0	0
12.5	-0.28867513958836	0
39	0	0
39.166666666667	-0.35154628884586	0
20.347766676375	-1.1439190584087	0
19.833333333333	-0.7287688696859	0
40.666666666667	0	0
42.5	-0.35154628884586	0
10	0	0
18.5	-0.55217395360815	0
41.666666666667	0	0
23.428167819313	-0.87509566217462	0
42	0	0
42.166666666667	-0.29429712828707	0
42.333333333333	0	0
42.744785246826	-0.77776727251482	0
41.833333333333	-0.35154628884586	0
38	0	0
41.542494325991	-1.1832128457714	0
2.6015891852757	-1.0280995368212	0
13.258353909981	-1.6064355191183	0
4.8333333333333	-0.72876886968591	0
15.5	-0.7287688696859	0
15.8687454603	-1.0219070688786	0
16.501535203144	-1.5356869134354	0
14.833333333333	-0.72876886968591	0
12.666666666667	0	0
17.797921206366	-1.0219070688786	0
18.166666666667	-0.7287688696859	0
36.905165514021	-0.87509566217463	0
32.666666666667	0	0
32.5	-0.55217395360814	0
34.833333333333	-0.28867513459481	0
34.999999995676	-0.57732068917696	0
34	0	0
35.169838147031	-0.8650790039227	0
42.285095678197	-0.60378553647188	0
41.877780449001	-0.80261564071807	0
13.238498847354	-0.87509566217461	0
11.333333333333	0	0
11.697267761921	-1.4738194081615	0
12.166692603518	-0.86967323340335	0
3.1666666666667	-0.72876886968591	0
11	0	0
18.535412126967	-1.0219070688787	0
25.833333333333	-0.7287688696859	0
25.268255851942	-1.0280995368211	0
28.268255851942	-1.0280995368211	0
[...]
CELL_DATA 1424
SCALARS Coverage double 1
LOOKUP_TABLE default
2.8839671380109 3.1191456551337 2.0344760617627 2.621710014985 1.8266842785482 2.9959485086768 2.8089435872955 2.3343638466135 2.7660083959534 2.6022873439278 2.8386805670184 2.444077623593 2.8312694920845 2.6596237111367 2.6765999132765 2.6030140053261 2.4788382150257 3.2016792601873 2.6491823670581 3.2049803057803 3.2668051998621 3.2397645388213 2.9377848941875 2.9604617123641 2.9643578949636 2.9338229035156 2.959210872187 2.8683697649358 2.5315709577509 2.9415419467999 2.9781001789977 2.6439402925964 2.7711555867143 2.9499103754668 2.9351267318761 2.7506354310428 2.9906054780141 3.2926719412685 2.4950429645415 2.7645183262509 2.6446861545011 3.0118234486779 3.1626087638338 3.2466813284913 2.81985959873 2.4466859781846 2.87770222605 3.2460762848442 3.2615880341237 2.0982131252617 2.9854726434225 3.0554547319635 2.7152844536161 2.3458315885649 2.8059787928617 2.6276468816627 2.4966046605327 2.4141825576635 2.8792125925283 2.946804996988 3.3101813683221 2.8812791953228 3.1404246034958 2.3509466423677 2.6307114329864 3.0964789010011 2.9917792598812 2.9242253214776 2.6783188334018 2.81056275038 2.9276638099164 2.7348417907452 2.8495802971626 2.6004144089335 2.4015017089738 2.7422587465107 2.8723221397404 2.7892254765767 2.4611698293325 3.0484333488717 2.8109885265826 2.5652346908499 2.7522853800636 3.0738369998484 2.5949871979501 2.7988102645712 3.0258134580758 2.8707473264341 2.8607776885656 2.3268435973124 2.7980437461708 2.4272169626925 3.0640751608794 2.6301563363069 2.5126854180801 2.9563488940366 2.3502122672898 3.0570229418847 2.7572354487501 3.0098381967958 2.6529626813619 3.0743571113862 2.6850480169476 3.0144511438352 2.8563594738897 2.7153947406047 2.8178164892527 2.7524048083479 2.8319028806414 3.0442683193727 2.6621555823309 3.2226776507404 3.265692276353 3.0694139399159 2.6627257086243 2.8751081696598 3.1423125220538 2.8339606350062 3.1530727740331 2.8890277205065 2.7752583934825 2.8992798595608 2.9540556889965 2.8204078352493 2.7509242207215 3.0696757424388 2.7754755828046 2.7955230911704 2.9140158057176 2.8246068380895 3.3061729957005 2.7580835177904 3.0523518246404 3.2557450596041 2.6371351073155 2.946218227933 2.8859868649126 2.975440604103 3.1918678893657 2.934347649481 3.1661915547674 3.1123981213533 2.7306991431726 2.7304081961486 3.0902452969513 2.9610568159503 3.3791283104544 2.9875053969707 2.749414301439 3.1920305461643 2.8789255663199 2.7635898821238 3.0269054549012 3.2127485564564 2.7849551720564 3.195615632754 2.5775276302984 3.0680005905105 3.0005441027232 2.8877533069671 2.5598142979704 2.8196739799247 3.1095941150642 2.2930265598442 3.3702356928743 2.9943705546896 2.7536473556403 3.0886125740641 2.6171513525928 2.8986728010303 3.2348912319902 3.1880812921153 2.916599946676 3.2031385593372 2.6596793117871 2.9253483515516 2.6659369055649 3.2003422985903 3.2189678302194 3.3701189018333 2.6031841784801 3.1020399532848 2.9717637223167 3.1071792012819 2.9765313193486 2.8796037540509 2.7339463490666 2.7612134565243 2.7620680501513 2.3993638546289 2.8095677996408 2.7657661395719 2.9202780882267 2.9132699449662 3.0954983838364 2.2471285951147 2.4138779717315 2.8237938117159 2.4760388135727 2.9785323328691 2.9503207240762 2.8214989391315 3.1828800697734 2.9156866126309 2.2900914201965 2.5247306685707 2.6390545260703 3.0715850855065 2.7291380325005 2.9763051551352 3.2046663603379 2.9615035368374 2.6756989451993 3.1260687669157 2.6859058064177 2.9787878923071 2.8288290144653 2.7093247682632 2.7673594099147 2.4344538239575 2.8758220649612 2.5833919526191 2.5361496829359 2.669499692199 2.4987446576521 2.8355665329274 2.8705657981826 3.0598419558853 2.8781815463122 2.7771267491252 3.0503487375352 3.1068521653986 2.5531727306779 2.8804550236153 2.5365095846543 2.9040571620942 2.7393231876144 3.2066732621627 2.9426737055727 2.9610469510967 2.8860822304306 2.6763230740611 2.7090328906127 2.8818140858735 2.6886652217599 2.9643509548055 2.8932945919239 2.2246164845203 2.7382684967021 2.7467631956961 2.984814039597 2.5914293673879 2.7397729100368 2.662843871065 2.7898862151073 3.0926716168463 2.6874652149516 2.8728640422276 2.311814151352 2.4583013642669 3.1549477138372 2.3190164569594 2.6329828467352 2.8049043593064 2.5806990264125 2.8180219344125 2.5479946462447 2.6084971102563 2.7411297716338 2.2463853394181 2.5656018282503 2.6777481732678 2.5525943697486 2.560302331786 2.4659803416935 2.6701188551676 2.7934951012595 2.805918265611 2.6529111206972 2.6528364541726 2.8019985965043 3.2037972648497 2.9020577716135 2.5310304773548 2.6825878841204 2.6642331161522 2.799447789075 2.7080051239963 2.8090192679057 2.8416169743949 2.6891909678436 2.8074790049189 2.8178264010376 3.391950611941 2.8689703897604 2.9343087154165 2.7753075891178 2.8246344026612 2.8402741000549 3.3784882355858 2.8796956190378 3.0420765155195 2.7743367048957 2.5795090466308 2.9702191056264 2.7904487188962 2.8228333939936 3.3666336936855 2.9712832351498 2.978630575533 2.9535325251823 3.3296942973825 2.6960578616749 2.7957979327647 2.6081463467263 2.3763970318653 2.9130260917986 2.6105090276181 2.6728123671182 3.0926568115966 2.7044359143152 3.0378519732009 2.834132812529 2.9954744237006 2.363559090305 2.408075551543 2.5840773538768 2.561202122823 2.6458084108174 2.7747861829654 2.5808556895273 2.4998358319156 2.6302028433946 2.849586015755 2.8042254325813 2.9193044254647 2.3615151657766 2.2407064549667 2.8923383350686 3.2423726859895 2.9814491954289 2.8273490894514 2.6617950174806 2.6907810598381 2.6319438919199 2.8111068126002 2.6976188762835 2.8856184984704 2.7168653294671 2.6953870734888 2.9428667102364 2.5437776380744 2.2940375689811 2.5908602169096 2.5092662344418 2.3468872347271 2.7280705701361 2.7157677375827 2.4132357591417 2.9606131960358 2.6443543837898 2.4951749299999 2.5505600024385 2.682401020789 2.577893124747 2.6634848535671 2.3919985091721 2.9143741890122 2.7901504545579 3.025522694803 2.7319535828065 2.6657279751745 2.6974677638789 2.9443786986675 2.8069561387762 3.0366493710494 2.7623711728983 2.9480002409331 2.9266233242911 2.6798909388296 2.7637927514949 3.0406902697973 3.2113384501757 3.1512732908165 2.60304646388 2.789578150438 2.8264744791612 2.9015803128656 2.5562186638698 2.764361299184 2.9112061260865 2.7127977638852 2.6112333582986 2.8289101460984 2.6410427543767 3.3793435945411 2.4812091269291 2.5122661210864 2.3800936732412 2.6062918349437 2.2708277696489 2.4619618386804 2.3097156475053 2.369600156773 2.5809234772597 2.331558007564 2.3057449626275 2.8876692267774 2.4728624011031 2.5476744346781 2.6233269595025 2.7045368859057 2.5593270814566 2.6819871212097 2.5175558937713 2.7457437053577 2.6833106510729 2.2866404379708 2.5304382243107 2.5530207009863 2.384173830319 1.9734231838753 2.5362108798875 2.6007349741095 2.7888189643721 2.6354181496324 2.7980672694571 2.6558727780911 2.1916325806704 2.781594676789 2.6019439077792 2.7449413330566 2.5544093950298 2.874104583064 2.5735069575718 2.9219875687063 2.5940169360325 2.2580561569848 2.2631487207454 2.7454167766157 2.7388939062343 2.8101236949478 2.5752252709761 2.4295242570951 2.2282446295905 2.8374861939863 2.62590391455 2.8561136470664 2.641249665479 2.7104659956916 2.4482336658037 2.4534019575488 1.890998407461 2.5647761817507 2.4007470332544 2.0533667940387 2.185483683505 2.4044724061894 2.4590974596627 2.483349171128 2.5350149319038 2.9158392586416 2.4506017953272 2.237911492398 1.9125496262433 2.1783266194209 2.6314480112032 2.3776581222517 2.4273926778935 2.0441120020648 2.6913551517605 1.7920730213558 2.7501453463169 2.5210884566133 2.5516339408625 2.4918423838462 2.7862122279848 3.2537416303015 2.3829012203795 3.0813745025026 2.5447877445361 2.5582184949523 2.5675152171824 2.6504304150589 2.3785636041753 2.6169495785222 2.5482574077383 2.5702303263132 2.2188495406385 2.6462064856904 2.4562352823939 2.6793416261866 2.0725011995157 3.0850469247585 2.5512778594323 2.4803416050983 2.2932631242044 2.3975633368857 2.5256618470545 2.6553863981591 3.0257393827963 1.7020141158645 2.6948981322095 2.634160464788 2.3373573202473 2.4590062655903 2.0163365404123 2.1373382340875 2.561918116981 2.2534002110534 1.8385009445588 2.481560910813 2.3432010446217 2.8234096251769 2.0722933844212 2.3019118553799 2.3008697846937 2.3762350548264 2.0822016733102 2.0858172388906 2.4766302224592 2.6638480345406 2.4858466443571 2.4347822350509 2.2886694210663 2.3312795020707 1.9716844212788 2.4854220920745 2.2007524444085 2.1959079683608 2.4997329257776 2.3799153210155 2.5932473298121 2.3523852145161 2.1303498077441 2.520911863183 1.8206416017052 2.157723661164 2.4273945216459 1.6163346605742 2.2728993471407 2.2571636791861 2.5647517992306 2.3448931336421 1.7693056648191 2.5757016069509 2.5438790701384 2.6267704245119 2.6471188390472 2.4776423702219 2.3769938876188 2.4604544037288 2.4396738372656 2.4515344605669 2.0806937550843 1.9686449091265 2.6315218663135 2.5201341519793 2.3137055210576 2.398541800558 2.3329936977275 2.696391988036 2.3994114636836 2.2396964051521 2.2214542563576 2.2616466133118 2.3673261272173 2.5509618109812 2.9609782474249 2.6327755090487 1.9975309935481 2.4728119705428 2.8524268657201 1.9662336535846 2.399118527342 2.4025205466269 2.2848403800098 2.2794120921929 2.6552855096247 3.0353146579337 2.3692278817521 2.3191964575855 2.3172045721122 2.3716187653941 2.741593521809 2.4621380857815 2.1452086140661 2.1322252416333 1.6549078106958 2.0936131454954 2.1832598605533 1.7548514894123 2.7869701744184 2.6602562683805 2.3195023790824 2.2462462519816 2.7170984072869 2.6150303800758 1.9494244860792 1.3025507098623 2.244886170528 2.3085457948369 2.114321249534 2.8259226744878 2.0426583335543 1.998676695989 2.5341658514973 2.745728446813 2.4139160567781 2.2889104998391 2.3928100328752 2.3338136736579 2.1297913567628 2.4589347102439 2.1448754334578 2.3441778214342 2.4871766905265 3.210779562899 2.141013490229 1.9630578404427 1.922175236837 2.1626256710979 2.0737654705729 1.9136066929932 2.1659833621377 2.224343345377 2.2915387997737 2.0220106345402 1.9595337364908 2.5247054796897 2.4121744356361 2.5974939101345 2.2918244762508 1.800929999511 2.379084336501 1.6813119931033 1.5632037946965 1.8479156222782 2.3265769327898 2.7078739125406 1.9626567592189 2.7305129997347 2.1038038543835 2.1670777043901 1.9534787274548 2.2765964132201 1.9547517951901 2.531136364294 1.8843749324795 2.2329650121563 2.0523280690809 1.6281404340194 2.0803644315499 2.1332060893664 2.2408374369224 2.1948412403301 2.2698043087645 2.0421448837421 2.3615639846436 2.778858987656 2.0023323460745 2.2751550296869 2.2013696419738 2.1682496090694 2.3280039836124 2.0870893673469 2.0821863829038 2.6639978646154 2.4289483547922 2.1348241843504 2.8725334598087 1.5525306429301 2.0062936608848 2.6839683404936 2.0555930380753 2.2809314819011 1.2757270915383 2.0266580486291 2.7710649569304 2.1539252608283 1.8301893442654 1.8855668275854 2.2675395784659 2.1217969911087 1.8568698780982 2.1443975657528 1.9370715114911 2.0920770176743 1.9329557961919 2.3072124992495 2.0248813821716 1.9058013001598 2.1264827220711 2.0552764062501 2.1194532564016 1.9864083738292 2.0053073339859 2.908423082116 1.9920903174657 2.1022944848264 2.2964574551211 2.1370276884012 1.9761071619912 2.2049023941881 1.7107231404891 1.9086104137274 1.7852698383354 1.8645699190926 2.027563866098 2.7236569378448 2.2979336548733 1.9419879365041 1.7018009872334 2.3594608230235 2.051163533845 1.3528619200231 1.8126438671787 0.59372717640575 0.7400317437404 1.9686458414345 1.9124850368511 1.8058535474085 1.3754840874412 2.1157611166832 0.86646212264697 2.5334584230345 2.6832971659817 1.9177326887986 1.4191712980824 1.1999945397883 1.8016289108723 2.5152315507056 1.6280474025013 1.8157134569541 1.8081297531114 2.4182707780692 1.7672845056845 1.8336097561812 1.9657625607023 1.6427577555477 2.1091396291739 1.8993943697763 2.0580608441634 2.018208376997 2.0841645225878 1.8679037031103 1.6173335366742 1.9916816193909 2.2655635525179 1.5358548010851 2.4667373248516 2.6124790287985 2.4733535345035 1.8371657573945 2.2946601525931 1.6194166619481 1.6323966708588 1.6947208657131 1.670904797937 1.9091207462314 2.0667438252362 2.1055605179199 2.9244447943695 1.7074326195548 1.6507317345582 1.5101077278186 1.5788040162775 2.3705175872366 1.9184757563534 1.7347816248433 1.9239706895991 1.6879807016196 1.3608169333038 1.3380488547219 1.9155146854933 1.5473544111833 1.4671454102852 1.5432980821129 1.7936196904026 2.1983086028004 1.2473648141981 1.8371667187671 1.1890534072928 1.4686771576789 1.6073193064148 1.9704431717732 1.7262838909012 2.1930796838444 1.9984496056851 1.9731282764588 2.0730433084448 1.6528945232009 1.8290458053305 1.8454489271943 1.7128233615035 1.8057754110658 1.906420030266 1.4874415723519 1.9872824203524 1.7233696271102 1.6297949788143 1.7617792418729 1.819535324961 1.834748662676 1.1524083938182 1.9653782157286 1.6347842199822 1.7443955759427 1.4979465425599 1.753286917384 1.4806972905081 1.442606190292 1.6273883539066 1.6594928585685 1.4759454015278 1.6803027779423 1.5764277073873 1.3375360767897 1.4718013417412 1.5156392210706 1.1873626774349 1.6581418696081 1.2806650588739 1.6896854328138 1.5180422317053 1.5538899479157 1.2682191628728 1.3473838521523 0.92413703757006 1.2114358231913 1.4256244250107 1.2750244881064 1.1851690798718 1.4749621425089 1.3785773430394 1.540742040612 1.1015659369742 1.7021667105658 1.8769958707694 2.0255472111459 1.6482803483915 1.4226647358202 1.4845041270193 1.5757148431506 1.4182021366722 1.3169652021607 1.8582187359391 0.95836187028651 1.4726498335703 1.6444399826912 1.7463053712926 1.6552809776791 1.5433951171817 1.4409124838742 1.4213355473707 1.2096772210858 1.0936474055486 1.2567386433968 1.4453871209954 1.3241134367717 1.4570661493047 1.1159495804331 1.7455761702953 1.3935715857775 1.673388746275 1.7418907920962 1.3192224804918 1.2975283602154 1.5733770692032 1.58075632711 1.2758356698228 1.4040222410092 1.3279610934049 1.4567046230978 1.3105576949007 0.7692992853916 1.2206232939619 1.5059041179863 1.2439315025847 1.0321448261264 1.4380450787131 1.2988028510675 1.2436667549325 1.1422759495914 1.4466529598087 1.0551539534467 1.191734720157 1.2176869278334 1.2137445699777 1.0324805161509 1.143189972969 0.71029505132992 0.9067571858842 1.0325117284002 0.89341233187347 1.2481895142982 1.3201810484045 1.221190444556 0.97921560700992 0.75900313808223 1.0417132163317 1.0802890370116 1.5822894444345 1.2219029710822 1.0891344029863 0.97086205485612 1.1551006093204 0.99949139718008 1.2195394110656 0.44624460543241 1.1032920271449 1.4773629449452 0.90389428106312 1.088632532412 0.72139963323023 0.78273187855455 1.0062498536238 1.2267176288083 0.88536315779797 0.92337457887797 0.93203232382544 0.6304417341875 0.91299793894922 0.46751299161564 0.39578807703819 0.4500827016995 0.59831917596415 0.77497757177208 0.82490588571981 0.81204415781397 0.71463766918911 0.76014940945411 0.83940115788905 0.85000925712952 0.39612156431809 0.72171543636586 0.92833311362373 1.654561224024 1.6286286156171 1.160119906295 1.3378730272092 1.0825794646317 1.189375035412 1.1541912510811 0.65513179944851 0.76127505834152 0.62632321652056 0.63408667650131 0.6388390399485 0.75444133544636 1.0351172131281 0.65260967379474 0.59858074364862 0.72141727070996 0.82075951405473 0.53885776290648 0.51955532210431 0.76455411908921 1.4449319220336 0.77035886454393 1.4260750773418 1.1464622864107 1.4621781242753 1.4963595059633 1.3766095489369 1.3382382833765 1.1510367879444 1.2614420346371 1.2602918778075 0.80801953780613 0.67508069754032 0.49112882579428 0.40137012236041 0.4000739494582 0.85329152175209 1.1446669327024 1.050970821015 1.3422027301524 0.78627492549006 0.8753650339805 0.96892775285919 1.2856933627588 1.002010513024 1.2374323301009 1.094649727562 0.91423326303441 0.77788031665242 0.68809962253777 0.51958869472355 0.76720476072531 0.42830363889613 1.0439858502354 1.052135847332 1.4335503635661 1.1519515413154 1.251780732585 1.2329072076922 1.4774035652259 1.0520117756912 0.98329403498107 0.62038733561234 0.94808760547786 0.88549757738775 0.95147168411244 0.9116349884998 1.0770785721498 0.4958629277759 0.61989311531198 0.68268531801778 0.55181878401894 0.79833782824015 0.46997066116272 0.55935541369875 0.8259699953784 0.91576126118823 1.051028205906 0.67284529313365 1.1591150522786 0.75257705180152 1.3346165933893 0.98078034800415 0.74865377746668 1.1187898031143 0.91508870075303 1.069361268606 1.0257655217954 0.47638217541355 0.38790069288616 1.0508113175878 0.68745756184761 0.74762131267005 0.63441354935961 0.67438440727387 1.1202577831706 0.51881903899209 0.67008711853671 0.84901067613955 0.72500846168861 0.97881750322425 0.9055447930157 0.59953636547815 0.49099406700363 1.1151512468418 1.0445855248776 1.1866327946654 0.8860818372896 0.93804082829625 1.0314755273238 0.95667503622678 0.78428440598523 0.85747943322352 0.94839552918631 0.57337882885737 0.41411017381814 0.83116598194385 0.52998478966422 0.78600556817101 0.7967764528379 0.36469389060517 0.47788241492534 0.52686970828283 0.59548579965488 0.86747841276671 0.97063682838105 0.78030035750861 0.47286218502387 0.87979711864908 0.46113191878428 0.45507457944062 1.0537759075513 0.54658041861702 1.3480982511771 1.1782308474784 0.74295505885928 0.79489414300921 0.52405934777478 1.1493151885755 0.64493384755912 0.58490369511764 1.6518400430806 1.3154693952443 0.625373525151 0.77656061350729 0.71542446505199 0.51650760978151 0.47425285963514 0.51966177608266 0.430537901763 0.56891076538376 0.42674279378373 0.49082493987558 0.54816333550469 0.74202340097104 0.6120000249823 0.54642731007308 0.42905174950882 0.67530586221487 0.46927887128988 1.6242814877134 1.2951899673244 1.1402573097624 1.0311574005166 0.48964212457242 0.5432666295337 0.6239722801328 0.46149865424996 0.4448269377673 0.59865689133741 0.9629328224088 0.74017214803446 0.70387162838341 0.58586668545812 0.43262439546086 1.149186335863 0.83968563838088 0.58121689994915 0.44659360084101 0.62668283932174 0.49008775363978 0.51720746468541 0.43453675568551 0.45193068850529 0.58713818139571 0.74555008283199 1.1327508839296 0.6590145197639 0.6076032614263 0.70196581458426 0.80445804766063 0.7317851416931 0.42919923889187 0.66421760807169 0.80760023555077 0.86797847578587 0.90720563799708 0.97691856379525 0.92044252796418 0.82038985734825 0.7585476836571 0.87802699858975 0.63350165160604 0.67539823385211 0.61153101904178 0.85949750278453 0.46795933409587 1.1120208383388 0.81227462835434 1.2638350897516 1.122643624624 0.7353195195347 0.69443527716353 0.73209782103256 0.5657776466203 0.65643591705968 0.42821345595483 0.88672733927419 0.65518722624269 0.75240722636647 0.88692865108113 0.79354048685634 1.1301670854564 0.67005416792593 0.71107047597443 0.79524284487488 0.76782243732236 0.65418003675606 0.48360960160658 0.55373615960175 0.91006942293252 0.70209000683471 0.95271276144199 1.0415842597731 1.0360918367599 1.4307457424701 0.42852925236088 0.57436571911229 0.91266583382237 1.0527433880958 1.5275968215354 1.3975147521179 0.83582776297922 0.71894980745632 1.7984673679775 1.6124910325621 1.3409711220219 1.5166127187704 1.2886617131979 0.72338036136697 1.5797985085449 1.3164831406555 1.1748203678522 1.2709656579846 1.0897792992672 0.84171130988235 0.92661879173213 1.0813788804134 0.9030288755248 0.91703414067998 0.82984133634189 1.2084178653469 1.4811239049449 2.0030872682715 1.6900616742317 1.425795684968 1.2025463006433 1.1026509311404 0.68063875584578 1.1861805177478 0.97695663307545 1.2705685990401 0.99495759301449 0.96960917655892 0.81004666971326 1.1272529802987 0.770571915526 0.73658820955474 1.0620851116318 1.9437241667849 1.8077906113375 1.9340116783523 1.5569016767216 1.0329849718252 1.2740439270575 1.4085636330104 1.3420549410414 1.2886055666283 1.2451913225052 1.2525013021264 1.383352064977 1.1283661725773 0.92638340436563 1.7908240553926 1.5982980878776 0.67821075487582 0.38591159207866 0.53718270670748 0.44756071932367 1.2184936974943 1.464236855923 0.49689387857904 0.