# vtk DataFile Version 3.0
d-3__ created by libgimli-v1.5.0-1-g5991b6ac
ASCII
DATASET UNSTRUCTURED_GRID
POINTS 1483 double
3.3802423101098	12.435481574566	-0.57001420684378
3	12	-0.2857142857143
3.4959596309848	11.998298039034	0
3.2490070092203	12.168560129388	0
6.0395510135596	13.367156253372	-1.2757999763971
6.5930002103947	12.023472734859	-1.2922192071349
5.4998599382803	12.552571297657	-0.59337769664261
5.29662096318	11.932351047571	-1.5392209346082
5.6153020589615	9.1440579133635	-1.0774777831171
5.7237069713611	8.5589744845549	-0.30827017969781
5	9	-0.2857142857143
5.3151026533923	8.4249591108801	-0.38240156963578
2.3178923476779	4.1926464382665	0
2.5373292327812	4.4716333182052	-0.48281884804687
2.3342974478463	4.0018571812202	-0.30572640106363
1.9994701911036	4.4258543307655	0
4.8968211033092	12.507755029533	0
5	12	-0.2857142857143
5.2932790228536	12.494788035524	0
0	0	-0.2857142857143
0.54768630893449	0.55020446432687	-0.60775225926193
-0.16846798780902	-0.24002860812406	-0.65332445545953
-0.28063481777066	0.41453578455018	-0.44890469943706
7.7	3.575	0
7.3102059000399	3.7470939102263	0
7.7	3.6732286664853	-0.53772532608145
7.3176226410905	3.2857280588852	0
-0.7	-0.10798167686939	-0.47517111104905
-0.7	-0.57707899562378	-1.1376990549501
-0.7	-0.61986630133594	-0.43486724047509
6.3962361866998	10.611290418241	-1.3182185489848
6.565939673393	9.5694509864085	-0.57379796778735
7.1295911592009	10.496363016677	-0.48219980545192
6.3839624611364	10.341052129245	-0.35036617584397
7.7	14.3	-2.5
6.7623683783591	12.987112326146	-2.233077027779
7.7	13.059020885286	-3.3539705522597
7.7	13.327367479896	-2.129915020979
1	6	0
1	6	-0.2857142857143
0.93236760237426	6.49128333619	0
1.3454573625665	6.353105459937	0
2	5	-0.2857142857143
2.1684298754346	4.7403793023811	0
3.0226729813355	8.4836106439452	0
2.5164096947204	8.910651700233	-0.41109082170818
3.4071201441719	8.4167381876838	-0.59109415332551
2.5374808587914	8.1383747261781	-0.35604109466584
6.2778911301719	14.3	-0.61136458754231
6.2225356773765	13.691717475418	0
6.5208076177088	13.495118289851	-0.49928801204061
6.7358646795693	14.3	-0.39005656748015
5.7965188279432	13.281940723964	0
5.5320359851605	12.925291312368	0
5.353113789845	13.264183036004	0
5.5919457801018	13.101154188917	-0.33537516396337
7	10	-0.2857142857143
7	10	0
6.5010306427949	10.010760669106	0
6.8196744207924	9.5136576917357	0
7.7	1.1375	0
7.7	1.6430719769933	-0.42557297445049
7.1939383721229	1.4724531054162	0
7.7	1.625	0
6.3572581294301	1.4772201134971	-0.96507376287322
6.5574763981385	0.84898833643366	-0.48332647821142
6.7774291048203	1.7003141153393	-0.4123635555875
6.1433933962903	1.4220674799247	-0.28622251631329
-0.7	9.1984657118068	-1.9278839451739
0.33291529395702	8.3305676904572	-1.2970017952003
-0.7	8.1442617177323	-1.0898260028896
-0.7	7.644268062563	-2.0766032868031
4.508194357046	8.6258793740749	-0.60770874662543
5.0095189690676	8.5009469809039	0
4.7609249278557	8.7686419230913	0
6.2306672701993	2.67753718	0
6.6360398560532	2.4670661479797	-0.44686919005428
6.4910302172834	2.4939022421641	0
6.1550873755842	2.4572757142813	-0.33684154297057
1	1	0
1	1	-0.2857142857143
1.4901571161019	0.99574153349402	0
1.1736530561382	0.72346383359363	0
2	4	-0.2857142857143
2	4	0
1.6440539242474	4.1532454240512	0
7.7	6.9501255673919	-0.74418826283982
7	7	-0.2857142857143
6.7521552376889	6.497772044976	-0.66059363300197
7.7	6.3887218416049	-0.46884913673037
5.9482896260331	7.5800048202495	0
6	8	-0.2857142857143
6.3095291646476	7.6896230263426	0
6.1432247512519	7.3579252770212	-0.41388970597853
3.501272057481	12.437082442362	0
3.3297831413816	12.805427976196	0
3.6823393063421	12.851671876304	0
1.3671388209093	10.633374397873	-0.4152980605108
0.95248763025238	9.835503527633	-1.7808732395437
2.3518021577517	10.495200039554	-0.50930668321109
1.5373497846005	10.021005779616	-0.41781002197689
6.2054585007625	14.3	-1.3884356875417
6.9442913034148	14.3	-0.89278753613404
1	8	-0.2857142857143
0.54167473049383	7.7707286368021	-0.37916050195481
0.44975345341211	8.3808810318019	-0.31136669048163
1.022076618805	8.4121844676845	-0.45670843222423
0.89173681858685	4.6122796653579	0
1	5	-0.2857142857143
1.2386083631299	4.6841794176855	0
1.3923592539172	4.7130963353432	-0.25978315417498
6.4242299347383	5.6840176993625	-0.35514079575845
6	5	-0.2857142857143
6.3424541740313	5.2754910113697	0
6.0447933133998	5.5049876953384	0
5	2	0
5	2	-0.2857142857143
5.5190673049038	1.9208326821789	0
5.2306444928855	1.6547875838902	0
5	13	-0.2857142857143
5.257359886178	13.540476325965	-0.63012071696907
0	6	0
0	6	-0.2857142857143
0.066757795936057	6.5008369551487	0
0.29243888553297	6.1743316976873	0
7	9	-0.2857142857143
6.5033796411008	8.9981073418213	0
6.5607922823332	8.4440251373986	-0.63122800754088
6.811726958696	8.7028726276344	0
7	5	0
7	5	-0.2857142857143
6.4986646723997	4.9192017057136	0
6.7141996182955	5.3303468264748	0
7.7	9.5988491781319	-7.4736716195817
3.1507199964473	10.394874003632	-10
4.8663216648816	7.3792654266676	-10
5.1015502438684	11.553440122249	-6.405163284031
7	7	0
6.9589015254993	7.4884372736447	0
6.761634669635	7.2408783569561	0
6.0574437090791	0.20878539066113	-1.8779478182653
4.9838025543493	-1.3	-2.1179854334408
6.0308685444023	-1.3	-3.5425074203685
6.440522236286	-1.3	-2.0103523001383
3	2	0
3	2	-0.2857142857143
3.0105846506	1.4855923993349	0
2.6480485575569	1.6700894103009	0
5.0527203000088	13.535479310798	-1.5373151531841
5.0246691847863	14.3	-1.036131499603
4.1300067609037	14.3	-1.2024507502556
4.4744197407865	13.547407617085	-0.63586628370479
2.5813517996865	9.6286485974984	-1.0236151505326
2.2955236368793	9.5881134365907	-0.29154811067367
3	10	-0.2857142857143
6.4248505083522	12.522044346884	-0.42559946143008
6.465073985677	12.51782996062	0
6.1644652963082	12.36965297069	0
6.3832046574853	12.135664356038	0
2.9908655166747	12.498069465114	0
1.984703560175	7.5906357794687	-0.50777967523709
1.0508409188237	7.354634772545	-0.95680796450018
1.4515039911109	6.5829264157992	-0.56173008002516
1.3866216751759	7.5118935788728	-0.35488362790971
2.45	14.3	0
2.2168273415577	13.627179222019	0
2.4554693735383	13.497784276817	-0.39727655195048
3.032551925238	13.762466584345	0
6	11	-0.2857142857143
6	11	0
6.4843452951013	10.966514281357	0
6.2440599782187	11.234710090977	0
5.5	-0.5576923076923	0
5.247952850371	-0.29481663567353	0
5.5452342683804	-0.096294524539033	-0.49623355575102
5.1016398375367	-0.61489919294387	-0.38960315167385
2.3232496140345	4.0110297188843	-1.3835068702753
1.6586320571652	5.8268322896535	-1.5213554090482
0.71002746520551	3.976198472286	-1.505315421377
1.3296414347056	4.9089994064226	-0.82629172929831
5.6	14.3	0
4.6510156691765	14.3	-0.56274723813486
-0.090060726359069	5.5363033123106	-0.44581840212762
0	5	-0.2857142857143
-0.38456492153953	5.1805342841446	0
-0.7	5.0205501441189	-0.32507149572551
3	13	-0.2857142857143
5.1848675157348	3.2965660830064	0
5.4046165570399	2.9501485228537	-0.43988698776777
5.486289771732	3.4981838484395	0
5.4682750147717	3.0660382780841	0
0	8	0
0	8	-0.2857142857143
0.5178658825659	8.020802151125	0
0.25864598874121	7.6639427314904	0
6.7098208972434	7.2950601162224	-1.3269022195366
7.7	7.949747446039	-0.91833665053736
7.1577047253729	7.4844276204668	-0.64272934527953
4.5892004575887	3.5369189576522	-0.55981654583505
4.4420188491858	3.4660037233365	0
4.711527897636	3.7375259681419	0
4.3494632088922	3.8023533541114	0
4	6	-0.2857142857143
4	6	0
3.9913416390327	5.4988534517732	0
4.5093195747582	5.724109532591	0
1.4	14.3	0
1.5	13.55769230769	0
0.89284349994875	13.714781914708	0
1.2292962491126	13.670420041977	-0.37788942865261
4	9	-0.2857142857143
4	9	0
4.5502440226935	9.051086551406	0
4.2963154051231	9.3907765114078	0
4.5321110402369	7.5028925212181	-0.60552533206341
3.5085861108931	7.3893844432383	-0.64873189634878
4.0050480592533	7.4977657988521	0
4	8	-0.2857142857143
5.8961095330637	-1.3	-1.0125722125019
4.8982045728458	-1.3	-0.82217786726149
5.2296982103621	-0.31621891710017	-1.0679345669244
4.9010483556055	1.478997710586	0
4.5631533182214	1.9074133665015	-0.41231302454656
5.0320642355688	1.4518180616801	-0.36509190625555
3.5357179442866	0.46434418042464	-0.60031716899974
3.9407498163335	-0.4411178910574	-1.1087857494349
3.2826824657074	-0.47747544834602	-0.50866572047373
2.802260468126	-0.22902113419037	-1.4542342115515
1	13	0
1	13	-0.2857142857143
1.1191337005982	13.329221525091	0
1.4884720276527	13.02962190928	0
-0.21681247778723	8.5792000107362	0
-0.35118339610893	9.0917088673227	0
-0.7	9.0968147603684	-0.35256881313688
-0.7	8.9375	0
0.51662331659314	-0.40156299802931	-0.67799391089861
0.13474046208011	-1.3	-0.85683826964205
-0.16941603187845	-0.57512411281067	-1.4019543009948
6	13	-0.2857142857143
6	13	0
5.8068477026831	12.499749736815	0
6.1890713266052	12.67695534294	0
2.5984255358496	5.4578875982232	-0.67264342113488
2.2172109403706	5.4325217687574	0
2.4824672258873	4.9705265694472	0
2.6598112065826	5.3330483814808	0
-0.7	0.5146532048839	-0.51418317722913
-0.7	1.0492756199945	-0.88024243711367
-0.37698118088761	0.89350663208132	-0.33360419980628
-0.25096134668857	0.95145340086689	-0.90448711690516
6	2	-0.2857142857143
5.4002158317804	1.7678073061348	-0.50898482673054
5.8183999242367	2.5164331321023	-1.0840550371572
-0.13917028340788	5.5182991349521	0
0.31578338747353	5.7567158690792	0
6	12	0
6	12	-0.2857142857143
5.513035862904	11.994753403328	0
1.5285536174902	4.2362319729344	-0.43851980589517
0.57100063419133	12.499134596467	-0.56842257570583
1.2565986295401	13.42724014175	-1.149557674079
1.4486633887383	12.69302170761	-0.31714242590465
6.65	-1.3	0
6.903739311401	-1.3	-1.0953527719967
6.3980205255852	-0.38130956989248	-0.5855507841991
7.2175457166608	-0.5710098692386	-0.51938212652516
3	7	-0.2857142857143
3.5055774955602	6.7395375676091	-1.4094768265058
2.383927159844	7.4535505157878	-1.0620490471275
1	4	-0.2857142857143
1	4	0
1.2222221827385	4.2954008280594	0
0.82345085295407	4.2815033897546	0
5.6	-1.3	0
5.790373644402	-0.65252487431205	-0.38521635467031
[...]
CELL_DATA 5483
SCALARS Coverage double 1
LOOKUP_TABLE default
1.4860100591358 0.72513511567336 1.3791740908285 1.5509243047514 1.4232747943226 0.85158273135695 1.1152150938219 0.6381031921623 1.0882744882176 0.18817063574232 1.8156023019319 1.6376873829035 1.4791375344575 0.70300549521731 1.2319654620659 1.7694267239146 0.95464505729943 1.117144741017 0.61676210675325 1.6308115126427 1.4192772729242 1.6801529429997 1.8661421568045 1.039360725191 1.5654490541255 1.3736167487932 1.229430611803 0.56384753633005 1.341902362187 1.6241710517187 1.5335895199678 1.7581947016723 1.1902604135984 1.7659813205498 1.4575836878213 1.7477370615628 -0.40738108851846 1.7767260136146 0.22640253661515 1.7816616154691 0.60304615201888 1.3635672624911 1.369368340527 1.4440727476712 1.2695737193101 0.87510713604732 1.8075604598231 1.0173748629724 0.92142798255796 0.54993875727685 0.67322257405775 1.2550078726508 1.3612941392883 1.4969242713382 1.707529397745 0.92866681717924 1.407120184562 1.8187165652583 0.83977748758676 1.8149188789122 1.5003837468003 0.59391196097459 1.4067620460075 1.5047513111184 0.69711257381321 1.5604421808292 1.1661537678042 0.61067467875571 1.6856778314272 1.5465490336232 0.80388760452986 1.0661683252746 1.749304175822 1.6713533763971 1.5159467165775 1.0157243222978 0.60481830038113 1.2477545245762 1.9112576762012 0.6171869048224 1.1391844355798 0.77764851684297 1.4901776126582 1.2025522249117 1.4840810644367 0.960434807986 0.59178949955614 1.8473107629136 1.7489719699396 1.5416882607226 1.14312740147 1.1733942618012 1.2470176825938 1.1986924305319 1.4438978218258 1.5995100899551 1.5701679175342 0.95394665238422 1.621283029081 1.6522027734032 1.2818387474344 1.7796953757549 0.92977070625976 1.5701734592798 1.0639343869562 1.5286606073096 0.29294595798846 1.1006423164284 1.7660372724951 1.8564221077808 1.4768710380824 1.2669812547546 1.4525423410589 1.3823047186291 1.1417824304561 0.72943144425804 0.92761356478991 1.0018294732943 1.5460624741382 1.1722443300204 0.93884486193471 1.5924181336681 1.2251268863004 0.4042489939187 1.218088490984 1.7620951977928 1.0418935874377 1.7905910786421 1.3038537459602 1.5074242545881 1.4763212808827 -0.23907906919645 1.0439193213017 1.3815609672818 0.79400885991739 1.5712337672162 -0.43308433145772 1.3282898493344 1.3181552644303 1.8425372274204 0.53046552846584 0.1412389141053 1.7609183864872 1.6682476526136 1.4861636530213 1.4072949867936 0.88671213176109 0.64951245915134 0.88930054804498 0.57580067046448 0.3535772361276 1.838356317819 0.7886565531794 1.203930850215 1.3671034943108 1.6202881808217 1.4595396112804 1.0364419697482 1.7114337291065 0.76496560732341 1.4213674644042 0.70126023975996 0.99542889828296 1.5650745319464 1.8480213084181 1.6307220956092 0.57892448494946 1.7814586191353 1.4145733588207 1.790307275085 1.5742071323305 1.1615782988667 1.2368826003482 1.8125366642407 -0.10654460514053 1.8489649853229 1.8943710377171 1.7503988145922 1.6743273371104 0.15535601087278 1.5357529372278 0.38598714149243 1.0976636311948 -0.10083089094148 1.2096205435978 1.8339748131421 1.3850983292809 1.5481133422284 1.8087395029532 1.3149561321597 1.8357441933735 1.308343316032 0.71650737323574 1.5828820965725 1.2548014920845 1.0537598874647 1.6162849158769 1.5198800882388 1.3839899428013 1.8475694611227 0.5065844126708 1.8791730430726 1.3885445330904 1.4801232417351 1.8943954767814 1.6389908317042 1.7030935433771 1.4500271315332 1.0549573019147 -0.46115103470178 1.3657232192229 1.058243467551 1.1631618590742 1.8737701462136 1.8392640241453 1.8469411376733 1.8380114025207 1.5805021082592 0.84414818860815 0.84254638876635 1.3595221571055 1.7087366679118 0.54182108673537 1.8567165263907 0.70132626996085 1.6699980525188 1.5173243593222 0.8411003883307 1.9122084181042 1.1392354951632 0.90179262127133 0.86179548654478 -0.15895226798582 1.8419850497228 1.437635399443 1.1532822627274 0.5544996993081 1.7299854991653 1.4821062489526 1.5185974192888 1.7514592316077 0.68495968074037 1.5748549834366 0.94377328125567 1.5557655089087 1.8275764416401 1.3084170767974 1.5156355208317 0.49215699859466 1.5940370760014 0.67301640844843 1.6664186240572 0.45152241295685 0.19644070865585 -0.0017974523861586 0.43379560236223 0.86176995569697 1.8439943919375 1.2957024496062 1.8556117541114 1.0242977428149 1.0352062406563 1.3694588070145 1.3348028550187 1.7246987076884 1.8156258824544 1.4382687311696 1.8436095622076 1.5167882604935 0.70574361351569 1.842343739852 1.8727469721705 1.543225253025 1.4014927923063 1.8302170150059 1.5343594148395 1.8418183624688 1.5643508769399 1.5513502217324 1.7134990455425 1.6217180068861 1.9132667971803 1.413963625866 0.51695624437462 0.49055611288665 1.2464574192 0.94274909059679 1.5720444637791 1.7280881897204 1.279312476094 1.5188596722441 1.8313434668432 1.7092538667361 0.54913666304514 1.3841603325929 1.6752705876534 0.70784176753641 0.24470696817522 0.82365084548768 0.48734457697486 0.43923831903246 1.5470434706254 1.3887502918914 1.0275115162741 0.79963555993543 1.081422824315 1.6003502482048 1.2916841700158 1.5205140876995 1.1010632429559 0.71971214011915 1.5684254219277 1.2525867748894 1.2405061256482 0.61987119086103 1.1405001507456 1.5056617334194 1.0682305343016 1.4262714311507 1.1388474143978 1.8028907246679 1.4732642502742 1.5135329148474 1.3956119326986 1.8956053579118 1.2460985620003 1.6732273884194 1.5299307097821 0.45217569683181 -0.64314547880919 1.6096646054625 1.1817440552805 0.71249035221084 1.5143086383755 1.4375641870795 1.7839529378153 1.8571282616 0.9332510452658 -0.59883142692796 0.82971567165493 1.3994956796267 1.2096342371053 -0.26692042391559 1.0526314503284 1.0384390492097 1.4022159572299 0.90208290470364 1.5306689538586 1.3543015946966 1.2243281708241 1.5070960935673 1.7080886456772 1.7820777134002 0.58368208371446 1.8634014745323 0.97939640785133 0.093685915006711 1.2886550968062 1.7293487366531 0.47381362049029 1.2932000922039 1.3575990519381 0.70188514894104 1.3627510071905 1.7259591520071 1.4580149615676 0.85737988605963 1.7572477205474 1.660100575059 1.1833845029977 1.3066633214808 0.95319872799997 1.4477841392397 0.25612847884769 0.56229892770247 1.1320445416992 1.2768167535552 1.5086918227402 0.74480567680648 0.3026292510292 1.8156423021137 1.8721276381152 1.8838826904147 1.5851698862218 1.3271459176567 1.8438400932661 1.7971805885774 0.5640382981969 0.82118040930905 1.5132603927217 0.97647958130095 -0.24120760222983 1.5712724046676 1.3898654162625 1.3858492568656 1.5687948522993 1.5936050072375 1.4490498800717 1.3472733729905 1.530134638839 1.0279784599838 0.8205134509028 0.81007171483707 1.7318357345637 1.9132180425835 1.2211210403982 1.3297974636634 1.6989069144825 1.8369880120833 1.2633503405099 1.4052072978901 1.4946043819688 0.63655722011189 1.8105614143492 1.3934392168028 1.4287427780764 0.90804293180875 1.5385373872748 1.8272055574127 -0.40865570507242 1.5396274663909 1.5037734899911 0.50542943437864 1.3797019554197 1.335557090911 1.0257609763395 0.18224006438622 0.097788974824665 1.5669845519795 0.28410598313916 1.6748421012081 1.2476267657496 1.8075193113133 0.86054236373972 1.7255600170339 1.3856472196962 1.7219627908624 1.7927462391361 1.3904280255756 1.1812395102983 1.4085693982652 1.5533959761578 1.2557998428991 1.7152011779153 1.8131949898639 1.5487297708236 1.1241847794969 1.2620109213425 1.1867510589811 1.2191582516404 0.89014360095014 0.67558039188523 1.4358612170941 1.5043513558804 1.5087310503842 1.4423558052552 1.8684674396745 1.4020839998573 1.6742208595909 1.4819918202404 1.8648025659266 1.2720974182142 0.971994345413 1.5787277308157 1.9030563780608 1.4906338697271 0.8606892518444 1.3297937877556 -0.26613619095766 1.8215647292862 0.43138434598647 1.7798999593254 1.4632540630174 0.21371131724853 1.5415984239195 1.2918138374273 1.0467144804605 1.4834367445566 1.6974423893874 1.8298104328695 1.4119498655278 1.4338494521833 1.7907633001029 1.6184340814941 1.3558669895225 0.69901874067601 1.5827401877415 1.5372777849684 1.5115249632531 0.64165192626427 0.42150475602222 1.4257774956232 1.2103254808308 1.4807059738963 0.81698910601581 1.835009696469 1.3770947504721 0.79595933005632 1.9047353926021 1.4012660898846 1.0366910829929 0.6144633599411 0.81510636612656 0.97235166488305 0.50353097462248 1.6767547152876 1.5770046858312 -0.045672082404892 1.3054815435825 1.1437428655788 1.4337902086806 1.3332110467375 1.5146822449231 1.491301437189 1.7766930606772 1.0177967162658 1.5740229615137 0.72956866705029 1.0559574586749 1.366814086702 1.579171765816 1.0804195883803 1.7656234538823 1.6013584271386 1.2936435329881 1.5719798301734 1.4154809764925 1.6553415560821 1.5501258829876 1.5931834948736 1.5549057628884 0.38912294284846 1.2946156073275 1.411407021452 1.8108513672994 0.74720321006388 1.7717554155502 0.74008532063954 0.87041381266701 1.3139264617108 1.7839759295492 0.84440842611247 -0.7178243309113 1.2343003084149 1.5206136814669 1.2517016322655 1.6662803340054 1.4465720506884 0.63881449510474 0.79782378718482 1.8092613302668 0.91602684194991 1.5722597083768 0.81969642704397 0.58357325321946 1.3446595304086 0.55380381636233 1.5423092860104 1.5729758430646 1.5088676683597 -0.0031002069391485 1.0922336245097 1.6785814253144 1.180894379384 1.50916150402 1.4099560798826 1.3774100527991 1.4388219877536 1.0467230617109 1.5765618347356 1.5267200475854 1.0082639342663 1.0690476365509 0.22626030151168 1.8638613071474 0.90064855234455 0.31402734270226 1.7254347795769 1.3166790004206 1.6073798618777 1.680752942928 1.6639733881668 0.62580001053374 0.83362119064114 1.5762744504254 1.3641210231967 1.6431937027482 1.1280079569414 1.4630861040119 0.74501940911585 1.0360815418675 0.81122400585703 1.4947080476816 1.2240883537378 0.65274181808883 1.8489334540979 1.6272875154189 -0.5765617975375 0.10711491427945 0.87385887804777 1.6338354241396 1.4960659768171 1.5255422230619 1.8236353635711 1.0743177528313 1.415575823194 0.57995413341997 1.6552952707788 0.32958619364201 1.578857443307 1.0810967686794 1.5578810938649 0.88318535709244 1.5801523069021 1.4902042868644 1.3341632689806 1.4100564435211 0.3318443239201 1.8553016279149 1.1269891628943 1.4875508446565 0.42543724444664 1.4349334773406 1.5493758618498 0.93356037238966 1.3254918466395 0.84908974479446 1.6704913985371 1.0607304376855 1.4551767914697 1.3695540143177 1.247607008085 1.8447684647752 0.66429448477841 0.37888908917676 -0.56604424098353 1.7628216454507 1.1015016952516 1.0385753882857 0.7373967558354 1.7871841259922 -0.23143529770597 1.5984468167792 1.5577446200857 1.0700168829909 1.0141209738695 1.7589692780707 1.8544347938335 1.4532505254552 1.5040760383666 1.7772170847581 1.6890640114851 1.8311879313838 0.71755634744161 1.299745428054 1.834263892153 2.0231578560406 0.65497260561518 1.4192582365172 1.3438654979116 1.448258196507 1.5649783568045 1.5803446829568 0.59435409785537 1.7205932391275 0.65680522307508 1.1127584141311 1.4576302619869 1.904706902436 1.0991859510195 1.394875298001 0.084216995156469 1.6546379320599 1.6355111860483 1.1611137717263 0.25322830968525 1.3731711903894 0.68786308951307 1.6439742749992 1.1459517480208 1.5087155263284 -0.38462372625228 1.4643488068108 0.65791952771648 0.74576220436798 1.8398735273621 1.2566759866443 1.2881834981084 1.5211666986921 0.43703117577398 1.8541399877549 1.8419303247946 1.4991998311454 1.8096813469504 0.63068750132244 1.3217461879554 1.6958043716595 1.5048565697929 1.029434096143 1.7742362779317 0.4859218834046 1.250699412283 1.3695023753053 1.1611019239752 0.7803847672519 1.757259853579 1.5354306949242 1.315161803585 1.3445110576949 0.68069465917617 1.3774702708659 -0.44470358103943 1.5601412714879 0.99327876265842 -0.3176010431828 0.23023033555584 1.5249762668674 1.7035361315236 1.3332547258957 1.3602540916463 1.8571836275303 1.5109529352918 1.0504030542412 1.6044686350691 0.90304775106795 1.1504777828298 1.4309629345108 0.95367595573384 0.32350769575955 1.2221270146002 1.4321476255577 1.8411470185174 0.73064179555982 1.6418366622199 1.5119252982361 1.4326799107883 1.5515842906513 1.5723835553921 0.16690431466348 1.0041394190248 1.2806591130357 1.0078407849554 1.2211745249414 1.1087983360607 1.7449403519959 1.0275241180941 1.2264826932944 1.4382355526171 1.758387341108 1.7196611094058 1.7217388938745 0.61319667244495 1.8539338398972 1.4530004857818 0.72884448169187 1.1690263802268 1.4708249970867 1.3879829169368 1.0834411259414 0.81324249028977 1.4352279683223 1.5198014211864 1.90550728694 1.4129560873553 1.2872440183704 0.75480361991324 1.3887760374706 1.550336918806 1.5586438906004 1.7972605292873 1.3932655845898 1.4721262196694 1.0645775954014 1.5256151655603 1.5738987255266 0.80498437133656 1.8755205123394 1.3769163353313 0.54115246740695 1.5825301022056 0.85670501684543 1.4978462402064 1.1932729798862 1.7085418923589 1.174285012384 1.1887351109337 1.5513851080858 1.1188730866198 1.6310952218407 1.8354212174818 1.3097192903768 1.623522299757 1.4332454297211 0.45561309957885 0.96761096895132 1.7686595535532 1.6915057510338 0.080645190031399 1.579960830058 -0.58820140116616 1.3706456754043 1.7044007425486 1.2820971759455 0.59223563869514 1.7522953517779 -0.73270105807725 1.7101278569634 1.3084003947705 1.416629631437 0.7082477144191 1.1476915577898 1.3660865814545 1.0194567669443 1.4414945735712 1.0587576007558 1.4887562054589 0.75778122635102 1.4002475659256 1.4851409061589 1.1960197134015 1.3073992442517 1.5644665843594 1.5462671168326 1.4448534321442 1.0670719484673 0.59989036658875 0.73005443217732 0.59828871307695 1.5161408151779 1.5546464334897 1.568084296731 1.0542283871938 1.6480853195308 1.4681195445071 1.0790793038582 1.5721152994365 1.4322734557574 1.5777275018212 0.48252987531239 0.94949531869172 1.5850865410387 1.2495777903064 0.9169976635779 1.2699446537783 1.330898016427 1.0399230624641 1.2603872103496 1.5099839082208 1.4838146582369 1.1823127105517 1.8485433823542 1.8077000772291 1.0600468808843 1.2493845759016 0.70547040515136 1.3156235738258 0.64840510687309 1.6272737417741 -0.23599652926996 0.64667792697307 1.519809163163 -0.30942098039405 1.6320180185652 0.66876883635718 1.2677627329491 1.2896218473433 1.4045767651935 0.80010422748659 1.3879034200174 0.42403383426887 1.2271857237528 1.554240233204 1.2532669957767 1.5212462623991 1.5030650075773 0.92467349379648 0.77804543426174 0.37544457250854 0.76561825331742 0.50197159970163 1.8190514118527 0.42447426311352 0.90844503261676 1.507197495742 1.2785408835112 1.5426700537219 1.693787176197 1.4376797437461 1.564245400527 1.2132166204734 1.3692559546484 1.496023839034 1.5162156242421 1.6743065302048 0.53044059659728 1.5468423910089 1.554484491724 1.1464455169578 1.1269860761251 1.6359739072239 1.8707795691869 1.5890419166049 1.7047432797595 0.63606953968554 1.2198686179388 1.7956014128352 1.447546140245 1.2769506552886 1.6503366272459 0.99301756853971 1.3575668601351 0.37638300462206 1.7318094825705 1.2188643845653 0.65586129343386 1.4481263607872 1.4966771283713 1.3995731079339 -0.18720965385523 1.2628002158655 1.5621278313971 1.8491075860884 0.30270440611279 1.7567278802489 0.78880796615197 0.1932271181139 1.1469084789285 -0.50043514080009 1.6834271112835 1.8894297305946 1.3985976482198 0.98002738790221 1.4920411246302 1.7382816535663 0.35415759076374 1.5621803809724 1.4656020632262 0.19031658461241 1.4213042825503 1.331496047172 1.6233674964986 0.93816888756636 0.50893671026405 1.4179235134668 0.59090758202022 1.245462279665 1.8475368543222 1.3375092514158 1.4845950474764 1.2722979343243 1.5910412148868 0.31322319392684 0.35961875153067 0.9554766517946 1.9868108873147 1.1033354111265 0.59862220407499 1.5230784622958 1.5535218394165 1.0354066284209 1.3394791766188 1.223746815288 1.3058189725426 1.552453909905 1.4601683688539 0.71905216572019 1.2832875148388 1.3177624062532 1.5823099201357 1.8604825007885 0.57740201807023 0.83011559017569 0.4573016927054 1.4927014684088 1.299148018371 0.7735554671127 0.96763938507928 1.7819557023277 0.47276985906133 1.1710350140768 1.0411127137307 1.2628703407633 1.7200175762972 1.2197421084786 1.1378065880984 1.7648460480139 1.8623790841104 1.5013457028643 1.7081451919635 1.5717115076524 1.210678550205 0.77319278596837 0.72561828735134 1.4699298227035 1.0393730385145 1.1651037924639 1.4707895757415 0.7218324768316 1.6093925553455 -0.17238493470262 1.7885817776364 1.5870377122738 1.3404082718817 0.49917301237307 0.56355173061796 1.7305411382217 -0.047227260583344 1.127624133774 1.2206830054075 0.58301334143511 1.1287706021373 1.8066752041222 1.8075982794415 1.4662505753741 0.64904381921758 1.6833139370578 1.7395568089948 0.28353683654467 0.88339695135307 1.6165460068916 0.99360784015234 1.5399812486547 1.527332018087 0.90264523580451 1.3529718365032 1.1999939403507 0.72598039515697 0.6209348058469 0.59190235191698 1.7774986895847 1.8220509529184 2.4686996018897 1.5398217741674 0.85544033247707 1.2852656945533 1.4774815330613 0.90961313364803 1.4767093660115 1.6898313614844 0.47700000673641 1.7206169220205 0.84585487841851 1.7194083754861 1.5183964693163 0.73211492354335 1.1917117885008 1.4881019470349 1.3813217307907 1.2240038438292 0.86561461175331 1.6026608061602 1.7919323445796 0.83532374847958 1.6638496482203 1.7238020972562 0.40774332714627 1.9603260866345 1.3947444675941 1.1633911238228 1.1073090840227 1.0906799891012 1.5431485069644 1.4598594613513 1.6912880107936 0.85920897650293 1.7978426105451 1.2537008752404 1.4077193018922 1.3029008956916 1.0165150312974 0.62874782494878 1.8725269167762 1.8127072862978 1.418545558615 1.8951675341168 1.0319512527447 1.0121717267356 1.4972768289889 1.474751693238 1.3386796444764 1.3393187655614 1.4815843291006 1.031077583805 1.7879138315859 1.8373019907379 1.3883969636193 1.0432637510379 0.78440513662278 1.4017010274625 1.2492869309506 0.29204774804365 1.5471343297741 1.6976465223608 1.2706821922673 1.8552234551867 1.3368175682745 1.0331895667945 1.8462082804656 1.4767912813651 0.5564309671307 0.70962306106871 1.274121953431 1.834362873377 1.1618065924807 1.0283251427429 1.4294782052143 1.2945677043297 1.6983951244077 1.5343718050209 1.197623689825 1.2827634527008 1.7056497341369 0.84958472793044 1.5906106454721 1.6051059645857 1.8617734741268 1.4500357100788 1.2609416479251 1.7479856873878 1.724583243914 1.7904115963963 1.5022113815477 1.440464613762 1.4611122005083 1.5671810625983 1.4427641649299 0.90993397881734 0.0092787574479645 0.8624780158512 0.76451597050462 0.7470428044353 1.5660387208526 1.2225259762109 1.752288878055 1.226588947034 1.5070867104788 1.241155037141 0.57641865177935 1.7486574240839 1.5237500001752 1.6172681266521 -0.41577687789651 1.8254596280761 1.5871163141405 1.0089055707592 1.8001085920833 1.1698267026701 0.89088946803087 1.5120919826352 1.2699742137556 0.56926451651002 1.4391831509062 1.1765119301503 1.0737728428652 1.7538194406642 0.92488374506938 1.5647647263954 1.2955968501429 1.3148469575124 0.96167074133205 1.7641211615074 0.18686485733769 0.67111445042776 -0.53736357324136 1.3580623286358 1.3970529753191 0.77135928161301 1.0345323915392 1.5716967698319 1.6451797549531 1.3730536014575 1.6003288893287 0.86693071301967 0.84064468646286 1.8044809050132 1.7226038448931 1.4715964910709 1.550558075596 1.4354373586925 1.3978441504783 0.57568822386349 1.361187462402 1.6418555253122 -0.17667806362594 1.2200888450898 1.8548897068875 1.4194120609336 1.3826059983824 1.2317039130844 0.84624839174503 0.42784486338723 1.5355253573793 0.72171924525551 1.3657535260995 1.3658069456558 1.5237158333603 1.5859936005429 1.7749360964593 1.8099982666966 0.27778968572738 1.4433070188243 1.0803361693732 0.4104761048743 1.7930743511527 -0.52416863469129 0.52509492926214 1.2563088715372 1.7238687015709 0.85349548330139 1.4719487520331 0.52731301123606 1.413851325253 1.0025277735079 1.3013101102925 0.94713301847711 1.0046612888484 1.8598522100905 1.4152935810561 0.71688699680733 -0.13468629377891 1.026438999029 1.2903361276175 1.5213938770784 1.5020271717405 0.93561654289624 1.8178304546791 1.3076764295601 1.4774682133643 1.4326567613699 0.71357538408094 1.5325367785914 1.