# vtk DataFile Version 3.0
d-3__ created by libgimli-v1.5.0-1-g5991b6ac
ASCII
DATASET UNSTRUCTURED_GRID
POINTS 1483 double
3.3802423101098	12.435481574566	-0.57001420684378
3	12	-0.2857142857143
3.4959596309848	11.998298039034	0
3.2490070092203	12.168560129388	0
6.0395510135596	13.367156253372	-1.2757999763971
6.5930002103947	12.023472734859	-1.2922192071349
5.4998599382803	12.552571297657	-0.59337769664261
5.29662096318	11.932351047571	-1.5392209346082
5.6153020589615	9.1440579133635	-1.0774777831171
5.7237069713611	8.5589744845549	-0.30827017969781
5	9	-0.2857142857143
5.3151026533923	8.4249591108801	-0.38240156963578
2.3178923476779	4.1926464382665	0
2.5373292327812	4.4716333182052	-0.48281884804687
2.3342974478463	4.0018571812202	-0.30572640106363
1.9994701911036	4.4258543307655	0
4.8968211033092	12.507755029533	0
5	12	-0.2857142857143
5.2932790228536	12.494788035524	0
0	0	-0.2857142857143
0.54768630893449	0.55020446432687	-0.60775225926193
-0.16846798780902	-0.24002860812406	-0.65332445545953
-0.28063481777066	0.41453578455018	-0.44890469943706
7.7	3.575	0
7.3102059000399	3.7470939102263	0
7.7	3.6732286664853	-0.53772532608145
7.3176226410905	3.2857280588852	0
-0.7	-0.10798167686939	-0.47517111104905
-0.7	-0.57707899562378	-1.1376990549501
-0.7	-0.61986630133594	-0.43486724047509
6.3962361866998	10.611290418241	-1.3182185489848
6.565939673393	9.5694509864085	-0.57379796778735
7.1295911592009	10.496363016677	-0.48219980545192
6.3839624611364	10.341052129245	-0.35036617584397
7.7	14.3	-2.5
6.7623683783591	12.987112326146	-2.233077027779
7.7	13.059020885286	-3.3539705522597
7.7	13.327367479896	-2.129915020979
1	6	0
1	6	-0.2857142857143
0.93236760237426	6.49128333619	0
1.3454573625665	6.353105459937	0
2	5	-0.2857142857143
2.1684298754346	4.7403793023811	0
3.0226729813355	8.4836106439452	0
2.5164096947204	8.910651700233	-0.41109082170818
3.4071201441719	8.4167381876838	-0.59109415332551
2.5374808587914	8.1383747261781	-0.35604109466584
6.2778911301719	14.3	-0.61136458754231
6.2225356773765	13.691717475418	0
6.5208076177088	13.495118289851	-0.49928801204061
6.7358646795693	14.3	-0.39005656748015
5.7965188279432	13.281940723964	0
5.5320359851605	12.925291312368	0
5.353113789845	13.264183036004	0
5.5919457801018	13.101154188917	-0.33537516396337
7	10	-0.2857142857143
7	10	0
6.5010306427949	10.010760669106	0
6.8196744207924	9.5136576917357	0
7.7	1.1375	0
7.7	1.6430719769933	-0.42557297445049
7.1939383721229	1.4724531054162	0
7.7	1.625	0
6.3572581294301	1.4772201134971	-0.96507376287322
6.5574763981385	0.84898833643366	-0.48332647821142
6.7774291048203	1.7003141153393	-0.4123635555875
6.1433933962903	1.4220674799247	-0.28622251631329
-0.7	9.1984657118068	-1.9278839451739
0.33291529395702	8.3305676904572	-1.2970017952003
-0.7	8.1442617177323	-1.0898260028896
-0.7	7.644268062563	-2.0766032868031
4.508194357046	8.6258793740749	-0.60770874662543
5.0095189690676	8.5009469809039	0
4.7609249278557	8.7686419230913	0
6.2306672701993	2.67753718	0
6.6360398560532	2.4670661479797	-0.44686919005428
6.4910302172834	2.4939022421641	0
6.1550873755842	2.4572757142813	-0.33684154297057
1	1	0
1	1	-0.2857142857143
1.4901571161019	0.99574153349402	0
1.1736530561382	0.72346383359363	0
2	4	-0.2857142857143
2	4	0
1.6440539242474	4.1532454240512	0
7.7	6.9501255673919	-0.74418826283982
7	7	-0.2857142857143
6.7521552376889	6.497772044976	-0.66059363300197
7.7	6.3887218416049	-0.46884913673037
5.9482896260331	7.5800048202495	0
6	8	-0.2857142857143
6.3095291646476	7.6896230263426	0
6.1432247512519	7.3579252770212	-0.41388970597853
3.501272057481	12.437082442362	0
3.3297831413816	12.805427976196	0
3.6823393063421	12.851671876304	0
1.3671388209093	10.633374397873	-0.4152980605108
0.95248763025238	9.835503527633	-1.7808732395437
2.3518021577517	10.495200039554	-0.50930668321109
1.5373497846005	10.021005779616	-0.41781002197689
6.2054585007625	14.3	-1.3884356875417
6.9442913034148	14.3	-0.89278753613404
1	8	-0.2857142857143
0.54167473049383	7.7707286368021	-0.37916050195481
0.44975345341211	8.3808810318019	-0.31136669048163
1.022076618805	8.4121844676845	-0.45670843222423
0.89173681858685	4.6122796653579	0
1	5	-0.2857142857143
1.2386083631299	4.6841794176855	0
1.3923592539172	4.7130963353432	-0.25978315417498
6.4242299347383	5.6840176993625	-0.35514079575845
6	5	-0.2857142857143
6.3424541740313	5.2754910113697	0
6.0447933133998	5.5049876953384	0
5	2	0
5	2	-0.2857142857143
5.5190673049038	1.9208326821789	0
5.2306444928855	1.6547875838902	0
5	13	-0.2857142857143
5.257359886178	13.540476325965	-0.63012071696907
0	6	0
0	6	-0.2857142857143
0.066757795936057	6.5008369551487	0
0.29243888553297	6.1743316976873	0
7	9	-0.2857142857143
6.5033796411008	8.9981073418213	0
6.5607922823332	8.4440251373986	-0.63122800754088
6.811726958696	8.7028726276344	0
7	5	0
7	5	-0.2857142857143
6.4986646723997	4.9192017057136	0
6.7141996182955	5.3303468264748	0
7.7	9.5988491781319	-7.4736716195817
3.1507199964473	10.394874003632	-10
4.8663216648816	7.3792654266676	-10
5.1015502438684	11.553440122249	-6.405163284031
7	7	0
6.9589015254993	7.4884372736447	0
6.761634669635	7.2408783569561	0
6.0574437090791	0.20878539066113	-1.8779478182653
4.9838025543493	-1.3	-2.1179854334408
6.0308685444023	-1.3	-3.5425074203685
6.440522236286	-1.3	-2.0103523001383
3	2	0
3	2	-0.2857142857143
3.0105846506	1.4855923993349	0
2.6480485575569	1.6700894103009	0
5.0527203000088	13.535479310798	-1.5373151531841
5.0246691847863	14.3	-1.036131499603
4.1300067609037	14.3	-1.2024507502556
4.4744197407865	13.547407617085	-0.63586628370479
2.5813517996865	9.6286485974984	-1.0236151505326
2.2955236368793	9.5881134365907	-0.29154811067367
3	10	-0.2857142857143
6.4248505083522	12.522044346884	-0.42559946143008
6.465073985677	12.51782996062	0
6.1644652963082	12.36965297069	0
6.3832046574853	12.135664356038	0
2.9908655166747	12.498069465114	0
1.984703560175	7.5906357794687	-0.50777967523709
1.0508409188237	7.354634772545	-0.95680796450018
1.4515039911109	6.5829264157992	-0.56173008002516
1.3866216751759	7.5118935788728	-0.35488362790971
2.45	14.3	0
2.2168273415577	13.627179222019	0
2.4554693735383	13.497784276817	-0.39727655195048
3.032551925238	13.762466584345	0
6	11	-0.2857142857143
6	11	0
6.4843452951013	10.966514281357	0
6.2440599782187	11.234710090977	0
5.5	-0.5576923076923	0
5.247952850371	-0.29481663567353	0
5.5452342683804	-0.096294524539033	-0.49623355575102
5.1016398375367	-0.61489919294387	-0.38960315167385
2.3232496140345	4.0110297188843	-1.3835068702753
1.6586320571652	5.8268322896535	-1.5213554090482
0.71002746520551	3.976198472286	-1.505315421377
1.3296414347056	4.9089994064226	-0.82629172929831
5.6	14.3	0
4.6510156691765	14.3	-0.56274723813486
-0.090060726359069	5.5363033123106	-0.44581840212762
0	5	-0.2857142857143
-0.38456492153953	5.1805342841446	0
-0.7	5.0205501441189	-0.32507149572551
3	13	-0.2857142857143
5.1848675157348	3.2965660830064	0
5.4046165570399	2.9501485228537	-0.43988698776777
5.486289771732	3.4981838484395	0
5.4682750147717	3.0660382780841	0
0	8	0
0	8	-0.2857142857143
0.5178658825659	8.020802151125	0
0.25864598874121	7.6639427314904	0
6.7098208972434	7.2950601162224	-1.3269022195366
7.7	7.949747446039	-0.91833665053736
7.1577047253729	7.4844276204668	-0.64272934527953
4.5892004575887	3.5369189576522	-0.55981654583505
4.4420188491858	3.4660037233365	0
4.711527897636	3.7375259681419	0
4.3494632088922	3.8023533541114	0
4	6	-0.2857142857143
4	6	0
3.9913416390327	5.4988534517732	0
4.5093195747582	5.724109532591	0
1.4	14.3	0
1.5	13.55769230769	0
0.89284349994875	13.714781914708	0
1.2292962491126	13.670420041977	-0.37788942865261
4	9	-0.2857142857143
4	9	0
4.5502440226935	9.051086551406	0
4.2963154051231	9.3907765114078	0
4.5321110402369	7.5028925212181	-0.60552533206341
3.5085861108931	7.3893844432383	-0.64873189634878
4.0050480592533	7.4977657988521	0
4	8	-0.2857142857143
5.8961095330637	-1.3	-1.0125722125019
4.8982045728458	-1.3	-0.82217786726149
5.2296982103621	-0.31621891710017	-1.0679345669244
4.9010483556055	1.478997710586	0
4.5631533182214	1.9074133665015	-0.41231302454656
5.0320642355688	1.4518180616801	-0.36509190625555
3.5357179442866	0.46434418042464	-0.60031716899974
3.9407498163335	-0.4411178910574	-1.1087857494349
3.2826824657074	-0.47747544834602	-0.50866572047373
2.802260468126	-0.22902113419037	-1.4542342115515
1	13	0
1	13	-0.2857142857143
1.1191337005982	13.329221525091	0
1.4884720276527	13.02962190928	0
-0.21681247778723	8.5792000107362	0
-0.35118339610893	9.0917088673227	0
-0.7	9.0968147603684	-0.35256881313688
-0.7	8.9375	0
0.51662331659314	-0.40156299802931	-0.67799391089861
0.13474046208011	-1.3	-0.85683826964205
-0.16941603187845	-0.57512411281067	-1.4019543009948
6	13	-0.2857142857143
6	13	0
5.8068477026831	12.499749736815	0
6.1890713266052	12.67695534294	0
2.5984255358496	5.4578875982232	-0.67264342113488
2.2172109403706	5.4325217687574	0
2.4824672258873	4.9705265694472	0
2.6598112065826	5.3330483814808	0
-0.7	0.5146532048839	-0.51418317722913
-0.7	1.0492756199945	-0.88024243711367
-0.37698118088761	0.89350663208132	-0.33360419980628
-0.25096134668857	0.95145340086689	-0.90448711690516
6	2	-0.2857142857143
5.4002158317804	1.7678073061348	-0.50898482673054
5.8183999242367	2.5164331321023	-1.0840550371572
-0.13917028340788	5.5182991349521	0
0.31578338747353	5.7567158690792	0
6	12	0
6	12	-0.2857142857143
5.513035862904	11.994753403328	0
1.5285536174902	4.2362319729344	-0.43851980589517
0.57100063419133	12.499134596467	-0.56842257570583
1.2565986295401	13.42724014175	-1.149557674079
1.4486633887383	12.69302170761	-0.31714242590465
6.65	-1.3	0
6.903739311401	-1.3	-1.0953527719967
6.3980205255852	-0.38130956989248	-0.5855507841991
7.2175457166608	-0.5710098692386	-0.51938212652516
3	7	-0.2857142857143
3.5055774955602	6.7395375676091	-1.4094768265058
2.383927159844	7.4535505157878	-1.0620490471275
1	4	-0.2857142857143
1	4	0
1.2222221827385	4.2954008280594	0
0.82345085295407	4.2815033897546	0
5.6	-1.3	0
5.790373644402	-0.65252487431205	-0.38521635467031
[...]
CELL_DATA 5483
SCALARS Coverage double 1
LOOKUP_TABLE default
1.503284212601 0.73737365788195 1.393111586345 1.5615306918386 1.4372528946045 0.86316332284256 1.1330371324481 0.65131683425946 1.0995770371091 0.20010816661537 1.8324003911659 1.6491844841076 1.4857535271813 0.71101528083672 1.2447283688827 1.7783959669841 0.97048513236658 1.1307321839285 0.59381596970453 1.6412501316066 1.4319379123539 1.6964445456746 1.8825673160872 1.0529393915371 1.5782318178169 1.3908380399564 1.2409902874134 0.57161654365025 1.2975164123155 1.6420577426705 1.546460430109 1.7696788832428 1.2030794037312 1.7802385600651 1.4690645414892 1.7623319811611 -0.39062779454369 1.786426509045 0.24046364565025 1.7701618924686 0.61130307691214 1.3714988288405 1.3803325915812 1.4614028894366 1.267453636129 0.88743663421035 1.8183292636839 1.0295860762835 0.92938100081745 0.55960371946537 0.67805304250415 1.2647526533143 1.3790975971259 1.5130063155451 1.3122642759814 0.9422745214265 1.437471320617 1.8348546372015 0.85438434963609 1.8264697389134 1.5090521802843 0.60323902263458 1.4173630165055 1.5224541026336 0.70243880792386 1.5819546718807 1.1294358646623 0.62139977460757 1.7008411131953 1.5552606684645 0.81749285717954 1.0774497599073 1.7658114899161 1.6866806848201 1.5289492459198 1.031069590719 0.61661871394231 1.2515684005645 1.928230048684 0.62755658692409 1.1548228710912 0.79073315186562 1.4979583421917 1.2146241247261 1.5007887586106 0.98163918249846 0.59849101236512 1.858981674239 1.7588799902119 1.5534399360021 1.1572616027248 1.1973183981292 1.2592635219018 1.2149928224308 1.4593312384535 1.6122565828608 1.5874635995217 0.97081752692918 1.6327120953698 1.6576854289825 1.2949341492708 1.8046471207549 0.94171605915109 1.5934465973382 1.0758697165272 1.5287032294252 0.30502829483533 1.1136076929618 1.7828189157546 1.8717849240014 1.5673195361961 1.2863319393433 1.4635535588536 1.4032256181188 1.1569267101182 0.73643599396575 0.93599049095284 1.015763665787 1.5621014984254 1.1949978177703 0.9536901142263 1.605480830314 1.2379661655478 0.41754305042862 1.2279385607069 1.7765598111872 1.0480409719933 1.8015681257764 1.3272753822109 1.5194869933479 1.4958937313432 -0.22710186163801 1.0573763716411 1.3935346570163 0.80627430553 1.5825879565114 -0.42195118413366 1.3431068375051 1.3286485995378 1.8632187421012 0.54723646910942 0.15034834916357 1.7727311840628 1.682409887492 1.5002164627367 1.4149698464865 0.85238790615165 0.65547667385239 0.89839569112203 0.58439794134209 0.36510736953692 1.8507325118763 0.80781213687483 1.1971101787262 1.3801525055629 1.6379479682441 1.4480907127067 1.0510490050748 1.7334179024556 0.7768901112887 1.4326903739509 0.71626678329022 0.91739601114684 1.5736752121545 1.8616615108367 1.6350107046833 0.58674931923225 1.7971561198609 1.424542011291 1.801438260067 1.5851143614339 1.1677838113675 1.2507363762461 1.8239416967532 -0.096313092614099 1.8590579454035 1.9039217704437 1.7617770330954 1.6880535522529 0.16355827865586 1.5483478830757 0.38814805378195 1.1161970072747 -0.097051752307339 1.2209573073984 1.8506941628977 1.4017563871734 1.5599026032036 1.8218947017059 1.3307235310676 1.8460134740634 1.3174015944861 0.73114888258827 1.5919044726863 1.2577902096686 1.0685125189714 1.6418306444356 1.5325728490099 1.4012110317125 1.8637097176657 0.514935023221 1.8973596449221 1.4142806992099 1.4935123273752 1.9135746961434 1.656826514937 1.713120780256 1.4620391611038 1.069039853289 -0.45157734008133 1.3800301781443 1.0711703436076 1.1747340379168 1.8871086404971 1.8531691093435 1.8637375157469 1.8473395566221 1.6014985162324 0.85391855895556 0.84745821611404 1.3695605978392 1.7206266888284 0.54398844338011 1.8693540025638 0.7151733124533 1.685636689054 1.5311081662381 0.85161919521805 1.9245043035631 1.15133204507 0.91520012567935 0.87633677667358 -0.1536943522688 1.8583657507936 1.4374709699339 1.1595522149053 0.5481403496942 1.7462460939592 1.5677518571936 1.5347806080944 1.7678812061918 0.69622133275057 1.5866728849325 0.95673934575224 1.5717237759105 1.8459385289737 1.3228881353317 1.5301790069281 0.51691697198384 1.6080292809042 0.68270848573834 1.6771243076545 0.45054859379412 0.206051876954 0.0132560547955 0.44396830484153 0.87232830673338 1.8628756128418 1.3073472277019 1.8745293200322 1.0330475656305 1.0466572871907 1.420251507845 1.3453562012177 1.7566510452908 1.8332180203273 1.4487778602095 1.8631327357457 1.5349086898014 0.71871079279636 1.8580044252548 1.893852647265 1.5585633084688 1.4192079664534 1.8416663537287 1.5520770439882 1.8516991046518 1.5821469262262 1.5671911909594 1.7268098994781 1.6344509217424 1.9292662297618 1.4269082092953 0.52580520926211 0.49886146577677 1.2666355843313 0.95659387499884 1.58591114307 1.747757456638 1.3030894103949 1.5352286718119 1.8467452846973 1.7246948060633 0.56195974917406 1.4164344681417 1.6921701811313 0.71757183316168 0.25626126397307 0.83561809821696 0.49796290433361 0.44437325701993 1.5629713936585 1.3977303479374 0.99244642182524 0.81001110543409 1.0994853429546 1.6120158987044 1.3030916718382 1.5319051291976 1.1128924339871 0.73031376940123 1.579021312414 1.257771754494 1.2530257238463 0.63421677369398 1.1532801514233 1.5205297801896 1.0731535969529 1.4382839020077 1.147329318469 1.8155846549989 1.4978931959523 1.5234905062235 1.4093344574656 1.9089845160812 1.2581289328401 1.6968436354185 1.5458682035448 0.4583852371066 -0.63808610394488 1.6234296880071 1.197006906282 0.72105042360353 1.5270762130022 1.4520558148757 1.8024180340793 1.8761268372356 0.94318008590362 -0.58411520745075 0.84119303252432 1.4127623762722 1.2148068914782 -0.25652386469972 1.0349397267645 1.0501504233472 1.4212463548979 0.86243661252012 1.5454941911771 1.3632680705592 1.2340541574939 1.5266158384396 1.7196980789933 1.7856949768168 0.59894737380967 1.8790963401448 0.99557366035906 0.10111240766755 1.3050088550739 1.702812601082 0.47870457990617 1.3081452344993 1.365947260322 0.7049488213562 1.3765759752109 1.7436619120429 1.4683613422518 0.86899054555872 1.769201435452 1.6751087617853 1.2037946009149 1.3165918995987 0.9668202939532 1.4680598504984 0.26258709229016 0.57165959936063 1.1419820383099 1.2947040954032 1.5230508355045 0.75997768747529 0.32305650777545 1.8269284419551 1.8878357114955 1.9071237615073 1.5934287813235 1.3396674694097 1.855881821701 1.8070398220035 0.57339789703252 0.8315365940598 1.5214911016498 0.99226803116246 -0.23405165783749 1.5899739603743 1.4021465347614 1.3688972983735 1.5844597433683 1.60156390769 1.4665792603647 1.3889564035817 1.5406658840749 1.0432174072749 0.82963917797316 0.82132878954875 1.7572106756244 1.9211775641314 1.2344855318397 1.3421465541543 1.7176580528983 1.8476894434317 1.2770014867682 1.4330565240289 1.508069932421 0.64756584434724 1.8204720619801 1.406696896181 1.4409633683241 0.91998554863013 1.5581290134957 1.8422121236661 -0.40202876394551 1.5497140638803 1.5197859504345 0.52359050607385 1.3857057739065 1.3522825046879 1.0372280614372 0.19311288306602 0.11728513296763 1.5822983893547 0.29995202468196 1.6854209429344 1.2613379995194 1.8175329921029 0.87369843881524 1.7472963105899 1.4028417745887 1.7343673319698 1.7994862651107 1.4040581314688 1.1967147010585 1.4276325345783 1.5678691108017 1.267359352049 1.7302536185269 1.8248727000645 1.56075493183 1.1332875558879 1.2738093736229 1.1984701319476 1.2373910376047 0.89906959866979 0.6891145180219 1.4505973162843 1.5199282441377 1.6117874188142 1.4556894873084 1.8814549098544 1.3670088006566 1.6871391775236 1.4918565959207 1.8849690538849 1.230029757709 0.98829488299581 1.5919121400203 1.9088436104294 1.4877766863416 0.86422044644049 1.3408039122722 -0.2506610895696 1.8441310884294 0.45228569465492 1.8016445483255 1.475964306442 0.22148207531431 1.5537273383205 1.3049183263159 1.065199840352 1.4943159233854 1.7204090074039 1.8417792769437 1.4309948653205 1.4371804779227 1.8040511148279 1.6363379877692 1.3649274565833 0.70084364426236 1.5860679839696 1.545703678453 1.52344407599 0.65051071994345 0.42677713911061 1.4281323927751 1.2251308542909 1.4979002544955 0.82748680511206 1.8527826456959 1.4458313627614 0.8118908370064 1.9235296371497 1.423874557987 1.0435906524321 0.62252282159765 0.82145520751869 0.98458194724082 0.5146541002015 1.6993179268618 1.5906955354152 -0.025797215535908 1.3150562187096 1.1566323869822 1.446459708881 1.3495652892541 1.5299952374978 1.5069843960624 1.7986863228788 1.0303520944256 1.5815617511254 0.74109551596507 1.0705217229493 1.3832456127127 1.5829420904902 1.0941251563626 1.7752299646649 1.6100735532318 1.3039949342967 1.584513433586 1.4263023215719 1.6679086955228 1.5631957946074 1.600709651563 1.5621939585158 0.40146098888737 1.3057765023026 1.4283419932983 1.8136643252704 0.7636042840891 1.7908434339396 0.75225901641887 0.8838507104961 1.3297709246595 1.787762150632 0.85846148732292 -0.70947676573458 1.2590826487692 1.5304250473512 1.2634850312374 1.6929467791641 1.4646221316087 0.6501124233252 0.81343818450945 1.8241259966355 0.92118975279264 1.5870265096115 0.83053903806731 0.58665867440048 1.3496701623858 0.55831353091577 1.5546420124245 1.5847532027404 1.5293297777307 0.015599106001186 1.1039329728946 1.694997337172 1.1917413003045 1.5229810366229 1.4245355824212 1.3836386653933 1.4378490818555 1.0545681387516 1.5902884238134 1.5391504065313 1.0136706656813 1.0809530809756 0.23106690162629 1.8810043506174 0.91348871445543 0.32051275405507 1.7424782064833 1.3253616064691 1.6162887917757 1.6910812106674 1.6759135328036 0.63635505418024 0.84524328302904 1.5916432882349 1.3839318145617 1.657682572584 1.1356750872272 1.4746198951876 0.74910282666167 1.0519655951271 0.82383611325761 1.5096740947401 1.2344867432197 0.6683822430642 1.8595754022082 1.6443569277592 -0.57011503235149 0.11670912722299 0.88650190599287 1.618781962235 1.5627128801955 1.5383301067355 1.8372432100151 1.0871527399367 1.4287952842116 0.59818199113858 1.6812664098853 0.356829186327 1.6773823051697 1.0972088106498 1.5769729388788 0.89496140598363 1.5885001372872 1.5010351043032 1.352256880092 1.4299463601875 0.34306922035011 1.8641744813912 1.1379104215947 1.4956638737366 0.43777695111427 1.4483036120585 1.5618546817265 0.94372866021468 1.3380069819889 0.86294751929579 1.6939955291057 1.0747021076194 1.4724355695604 1.3785944223315 1.2631775029449 1.8641419225627 0.66712999880819 0.39347241068228 -0.55925229650472 1.7759521374847 1.1148018792789 1.0496754408731 0.74845463767627 1.8084602292393 -0.21799467381815 1.621085762971 1.5650445044731 1.0859905253385 1.0288636870412 1.7759522480345 1.8628758279834 1.4705563769881 1.5203750987078 1.7898644719531 1.6863429691602 1.8432526806085 0.72475504217028 1.3422517289348 1.8493439807743 2.042363762994 0.67429874776536 1.431428159334 1.3572569394055 1.4592965435649 1.5656511963372 1.5928303600502 0.60565632940377 1.7379473153233 0.67271404227608 1.1249225652991 1.4757775130911 1.9165161800797 1.1116443490471 1.4129814966352 0.092315351560228 1.677927936571 1.6498529902948 1.1264122650982 0.26151319974821 1.396865077705 0.70012798778804 1.6650735041276 1.1603525909737 1.5164645213166 -0.37705019662679 1.4251298447122 0.65158881503815 0.75709693770752 1.8624386781386 1.2728326739805 1.3005407689556 1.5385522522136 0.44411160572439 1.8763541102233 1.8545594845819 1.5139145110632 1.8279740791393 0.64736396833822 1.3584256256853 1.2982305157167 1.5177053129286 1.0216198363175 1.7941524009666 0.49255621693756 1.2619671423078 1.382066041221 1.1749705584188 0.79135699272602 1.772952882569 1.5504064046577 1.3338029994584 1.3534178733325 0.6963210506449 1.3818530254729 -0.43726391928005 1.5798897264427 1.0018525705065 -0.30908690245366 0.24259326244164 1.5378637011063 1.6737740329655 1.0941359603427 1.3731731095593 1.8518735966375 1.5252959786768 1.0679956223696 1.6164840393212 0.91513317039342 1.1642679729694 1.4409106556183 0.96422653650714 0.32794624375436 1.2701460406963 1.4502682945069 1.8629755776693 0.74387880741718 1.649460004087 1.5297122329467 1.443309901784 1.566348553965 1.5847386021408 0.18390141878614 0.97613558175741 1.3184522801395 1.0195433209995 1.2290358063641 1.1204486378831 1.7697685738664 1.0428407866896 1.239280571484 1.453433694001 1.7756696243863 1.7345350588877 1.7361230041868 0.62522959797971 1.8664733075154 1.4649288225703 0.74090759256649 1.1860804082716 1.4889948335064 1.4433008190411 1.0976550162118 0.82862524912983 1.4429388951059 1.5334302120214 1.9180681586359 1.4240547532509 1.2970726546532 0.77167532475149 1.4007261980784 1.5513542920124 1.5799368034263 1.8190927803567 1.4022427463071 1.4947196526716 1.0812927239176 1.5413885101501 1.5890242169289 0.81861282039233 1.8867218263564 1.3902591884946 0.55248845487394 1.5985347955672 0.87153928595778 1.5144387107769 1.2078465391357 1.7235397943789 1.1969410332827 1.200651888193 1.5678592605069 1.1354937208947 1.6402762477629 1.8542189267452 1.3143849644384 1.6313710536631 1.4487791342968 0.46883699864668 0.98488040338019 1.7789673239715 1.7081258309586 0.093860743574561 1.5903294651876 -0.57505501424438 1.3869712616837 1.7229575708363 1.2930957675004 0.60338526773077 1.7729568391092 -0.72459134972647 1.7220567617646 1.3221252867175 1.4307875213329 0.72090761869089 1.1659156460499 1.3808714617336 1.0316966041903 1.4525453011001 1.0662153730078 1.5741832607943 0.76258488279264 1.4100469458453 1.5081134557016 1.2072220702303 1.3244618865598 1.5754307996114 1.5534336362662 1.4570332353338 1.0771900760638 0.61138416961288 0.74545314753199 0.6061527039592 1.5293079346287 1.5660983136543 1.5784557567527 1.0627669726133 1.6744677879733 1.49486088084 1.0894268983722 1.5843237539137 1.4421426660443 1.585784279848 0.49990398412063 0.96153910551243 1.5972780795323 1.2666624793668 0.8881645734213 1.2866686832479 1.3428798946796 1.0503995966017 1.2761573810956 1.5283534066552 1.4987431608993 1.1941258181967 1.8618459184051 1.8233747245522 1.0741925804401 1.2903853761459 0.71123609314607 1.3334314595905 0.65995503429121 1.6387166570995 -0.2223181084525 0.65597466931698 1.5362449753734 -0.2945977067134 1.6509456278648 0.6851565847843 1.2802751411195 1.3050217111509 1.4173766081819 0.81260591066221 1.4003803365505 0.44447373107841 1.2451036883487 1.572321820362 1.269043014935 1.5364682036901 1.4860364150894 0.93950063330854 0.78659073491341 0.3858317506318 0.77454043783053 0.50474818647935 1.8245201187657 0.43743060884366 0.91881349171188 1.5190824957894 1.2850784247272 1.5264726735431 1.653967147974 1.4704066009243 1.575068304059 1.2249205309762 1.3788593395999 1.5165408723316 1.5365424728698 1.6925070727035 0.54257039074266 1.5646070052802 1.5554382132074 1.1607537244199 1.138162015208 1.6435763040199 1.8929490221182 1.599693144519 1.7162539836328 0.65217452062171 1.2357535122515 1.8143273848641 1.4848259157331 1.2819154903488 1.6616998144434 1.0036446822707 1.3693410246773 0.39500822422048 1.7424188490387 1.2438740871441 0.66852838138292 1.4605885726274 1.5073457024635 1.4100608154783 -0.17953363699727 1.2797087858261 1.5772697607237 1.8598530085475 0.31664057854589 1.7661820542754 0.79988387588608 0.20257937740602 1.1647109747525 -0.49418136801486 1.6928868901164 1.8997540087448 1.4145400224134 0.99534423916967 1.5027945177421 1.7060318968635 0.37677379099277 1.5833109778042 1.4829271193866 0.20737667178991 1.4319139793668 1.3438817254807 1.6365589562198 0.9476206307425 0.51468203739586 1.4251065213005 0.60008535957817 1.2575144196236 1.8599515356102 1.3567810694884 1.4990661486774 1.2886029511469 1.599030268518 0.33548923668502 0.37675976513784 0.96771216999782 2.0017147858621 1.1088341369436 0.6066411809164 1.5338559240734 1.5700296988808 1.0456600078825 1.3599657500582 1.2342490152258 1.3190883556889 1.5599044022096 1.4813436820429 0.7345476655342 1.2920502815788 1.3346540762632 1.5954857849946 1.8714430502819 0.58981872216496 0.84382625987246 0.46405293145007 1.5098736627968 1.3196257128028 0.7781301044432 0.9808195667604 1.7904508454341 0.48225435811551 1.1848720678424 1.0517371163938 1.2831530575599 1.7299249829947 1.2376967783997 1.1452331542672 1.7912963255739 1.8819727320957 1.5139724179455 1.7308671915003 1.5873187030501 1.22315896489 0.78288233788755 0.73835634571727 1.4893603322119 1.0579949677645 1.1781925944052 1.4805087791579 0.73722234289079 1.6251906837924 -0.15809126220016 1.807993339513 1.5982683742749 1.3582686052389 0.51335389573447 0.56715885752248 1.7421024996341 -0.042090016464048 1.1413584323359 1.2452363489829 0.59255566721142 1.1410012592527 1.8230098393255 1.8172346152386 1.4790391038848 0.66575983865656 1.7036547768312 1.7501267902109 0.303184662944 0.89658021489469 1.6291047655872 1.0037912677856 1.5531438891401 1.537627078585 0.91646078619645 1.3736788831552 1.2122138012786 0.71679195374732 0.63456691794618 0.60441898114045 1.7787070758091 1.8323414454231 2.4821377284331 1.548618826534 0.87032943938357 1.3253889862463 1.4863687790192 0.91795916160003 1.4908549629108 1.7071233426817 0.49510968312742 1.7403190077368 0.84986537065503 1.7290778805524 1.5108915565804 0.74012278903597 1.0850715253416 1.5015704936754 1.3994038459812 1.2368684952637 0.87888492056938 1.6321655599107 1.8054476665794 0.84546005471654 1.6794585260236 1.7345017425773 0.4297653665113 1.9789828854003 1.4100201205744 1.1759250283503 1.0291152873992 1.1026102919379 1.556446541823 1.473147385431 1.7015929171715 0.87208326423653 1.790406883447 1.2657258669611 1.4091603898122 1.3276221913123 1.0298183411832 0.64222786039518 1.8851890130676 1.8088797842495 1.4324026998219 1.9082867001734 1.0479174098943 1.0270647987927 1.4987525822375 1.4888230712767 1.3447247357364 1.3515194584427 1.4930968562574 1.0452301644127 1.7857573641028 1.85463121786 1.4056482236674 1.0258068116007 0.78954073375709 1.4197390957829 1.260485148948 0.30280856847164 1.5622753560023 1.7143111138741 1.280150906322 1.863818897668 1.3489786620704 1.0527720266112 1.8683311089415 1.4874256415681 0.56857743986691 0.71774704520479 1.2870360112256 1.8430596210568 1.175335904646 1.0029903447924 1.4498458662466 1.3084335527261 1.7199315185687 1.5533794314064 1.2109828267755 1.3035327785169 1.7167824657496 0.86913116897841 1.5995661158416 1.6113193313523 1.8766990692196 1.4623299895756 1.2727581111758 1.7570025374118 1.7387032626783 1.8106996419895 1.5176008832063 1.4575024481982 1.4643039747179 1.5951181440998 1.4546231477731 0.92030303669685 0.028436160034566 0.87296417300126 0.77052562424382 0.75100054194314 1.5819708831423 1.2231684804038 1.7681699770293 1.2320935419881 1.5174647092897 1.2526644687609 0.59061586139764 1.7700377439876 1.541371233307 1.6377732881055 -0.40070820964457 1.8480314127078 1.6035731180028 1.0219066767075 1.8131863089186 1.1822637999797 0.90545051193221 1.5684022684654 1.2878373576617 0.58533361565474 1.4571820678105 1.1911014763076 1.0843753880295 1.7646707849432 0.93423870536802 1.5810483169278 1.3078914339112 1.3272250294352 0.97422098141739 1.7793436463316 0.19528774717029 0.67763911717374 -0.52431600129354 1.3703902210207 1.4119939328251 0.78204240301527 1.0111861324359 1.5849006371531 1.6579586928968 1.3861616060967 1.6133590185066 0.87846311858974 0.85101074834173 1.8145584903972 1.7460029898158 1.4871185585053 1.565693486794 1.4456230638451 1.407781990673 0.58575558560535 1.3719509645101 1.6657548747179 -0.16487889809515 1.2527420575328 1.8686076081604 1.4338211204493 1.3952747523738 1.2473696066694 0.85947960263837 0.4303992908942 1.5434559368021 0.72499208076334 1.3768602806294 1.3756706983243 1.527180747972 1.5886378155992 1.7864359329055 1.8243574514319 0.29686265451096 1.4530666927648 1.0935362399781 0.4211171546653 1.8085777889387 -0.51250005998227 0.54490525618058 1.2547415045472 1.7333755774906 0.86099326648897 1.4824087765439 0.539382986043 1.4272723871467 1.0144729278925 1.2735795996477 0.95903597487671 1.0222003603811 1.8721365256051 1.4310192790215 0.7278356954003 -0.11631281361383 1.0390740386135 1.3040656037251 1.5343440960291 1.5119715071754 0.94385198020115 1.8353293985731 1.3191631906648 1.4964042825523 1.4515290898236 0.713105087084 1.5445689738115 1.5004883340197 1.91441