# vtk DataFile Version 3.0
d-2__ created by libgimli-v1.5.0-1-g5991b6ac
ASCII
DATASET UNSTRUCTURED_GRID
POINTS 803 double
8.3333333333333	0	0
8.5	-0.29429712828708	0
8.6666666666667	0	0
21.166666666667	-0.35154628884587	0
21.333333333333	0	0
21	0	0
-0.13949540192174	-0.65832226163824	0
0.26765699968102	-1.1941152153012	0
0.50098922076846	-0.451860121227	0
11.833333333333	-0.28867513459481	0
11.666666666667	-0.84084908820295	0
12	-0.57735026571174	0
-1	0	0
-0.82347194173878	-1.6006755924119	0
21.666666666667	0	0
21.5	-0.55217395360815	0
1.1666666666667	-0.35154628884586	0
1.3333333333333	0	0
1	0	0
1.5	-0.55217395360814	0
23.61842901153	-0.60378553647188	0
24.166666666667	-0.55217395360814	0
23.833333333333	-0.35154628884586	0
1.6666666666667	0	0
8.1666666666667	-0.35154628884586	0
1.8333333333333	-0.35154628884586	0
2	0	0
4.8333333333333	-0.35154628884586	0
5.1666666666667	-0.55217395360814	0
5	0	0
2.6666666666667	0	0
2.3333333333333	0	0
2.5	-0.35154628884586	0
2.1666666666667	-0.29429712828708	0
8.4079889429861	-0.75760412093209	0
9.0144333430414	-1.1439190584088	0
8.8333333333333	-0.55217395360814	0
13	0	0
13.166666666667	-0.29429712828707	0
13.333333333333	0	0
3.1666666666667	-0.35154628884586	0
3.5	-0.55217395360814	0
3.3333333333333	0	0
16	0	0
16.166666666667	-0.29429712828708	0
16.333333333333	0	0
3.6666666666667	0	0
3.8333333333333	-0.29429712828707	0
4	0	0
4.3333333333333	0	0
4.1666666666667	-0.35154628884586	0
27	0	0
26.833333333333	-0.35154628884586	0
27.166666666667	-0.55217395360814	0
3	0	0
16.5	-0.35154628884586	0
16.666666666667	0	0
2.8333333333333	-0.55217395360814	0
13.5	-0.35154628884586	0
13.666666666667	0	0
4.5	-0.55217395360814	0
4.6666666666667	0	0
3.9253443903472	-0.75760412093208	0
29.833333333333	-0.29429712828707	0
30.166666666667	-0.35154628884587	0
30	0	0
35.905165514021	-0.87509566217462	0
36.166666666667	-0.35154628884586	0
35.661339523067	-0.61041034021497	0
5.5	-0.29429712828708	0
5.8333333333333	-0.35154628884586	0
5.6666666666667	0	0
5.3333333333333	0	0
27.333333333333	0	0
27.5	-0.35154628884586	0
35.833333333333	-0.29429712828708	0
6.1666666666667	-0.55217395360814	0
6.3333333333333	0	0
6	0	0
37	0	0
37.166666666667	-0.35154628884586	0
37.333333333333	0	0
10.741322276319	-0.75760412093209	0
11.175685896383	-1.113902458684	0
11.166666666667	-0.55217395360814	0
6.5	-0.35154628884586	0
30.795730030397	-1.0103532830333	0
31.229185900173	-0.87228466782526	0
31.000045632922	-0.57199295442671	0
31.666666666667	0	0
31.833333333333	-0.55217395360814	0
32	0	0
40	0	0
40.166666666667	-0.35154628884586	0
40.333333333333	0	0
6.8333333333333	-0.29429712828708	0
7.1666666666667	-0.28872883340808	0
7	0	0
7.2211097499487	-1.0538354750778	0
7.0053271435993	-0.61041034021496	0
6.7615011526461	-0.87509566217461	0
9.5	-0.29429712828707	0
9.3333333333333	0	0
9.1666666666667	-0.28872883340808	0
7.3333333333333	0	0
39.666666666667	0	0
39.833333333333	-0.29429712828708	0
13.674580112811	-1.7184248716052	0
14.353791495618	-2.0265268011931	0
13.958469529133	-1.3940906823913	0
7.6666666666667	0	0
7.8333333333333	-0.55217395360814	0
8	0	0
12.994672856401	-0.61041034021496	0
5.5920110570139	-0.75760412093209	0
5.8348685364776	-1.5356869134354	0
9.8333333333333	-0.35154628884586	0
9.5718321806872	-0.87509566217461	0
10.166666666667	-0.55217395360814	0
7.33337923226	-0.57364431858631	0
10.36828810089	-1.6552861219901	0
6.6666666666667	0	0
36.666666666667	0	0
36.833333333333	-0.29429712828708	0
37.5	-0.55217395360814	0
24.333333333333	0	0
24	0	0
12.503171480364	-0.86507900392268	0
12.328351644367	-1.416191408927	0
12.778890250051	-1.0538354750778	0
11.5	-0.28867513459481	0
19.666666666667	0	0
19.833333333333	-0.35154628884586	0
20	0	0
9.6666666666667	0	0
20.5	-0.28872883340808	0
20.666666666667	0	0
20.333333333333	0	0
20.905165514021	-0.87509566217461	0
10.5	-0.35154628884586	0
10.333333333333	0	0
9.3280061897341	-0.61041034021496	0
10.833333333333	-0.29429712828707	0
10.666666666667	0	0
22.833333333333	-0.55217395360814	0
22.5	-0.72876886968591	0
22.915493514149	-1.1101467813362	0
5.2020787936337	-1.0219070688786	0
18.833333333333	-0.29429712828707	0
18.925344390347	-0.75760412093207	0
19.166666666667	-0.35154628884587	0
22.666666666667	0	0
22.5	-0.35154628884586	0
13.833333333333	-0.55217395360814	0
14	0	0
16.833333333333	-0.55217395360814	0
0	0	0
14.166666666667	-0.35154628884586	0
14.333333333333	0	0
14.5	-0.55217395360814	0
14.833333333333	-0.35154628884586	0
14.666666666667	0	0
15	0	0
15.166666666667	-0.55217395360814	0
15.333333333333	0	0
2.0948344859795	-0.87509566217461	0
2.2850956781966	-0.60378553647187	0
12	0	0
11.666666666667	0	0
22.166666666667	-0.95506458788032	0
22.166666666667	-0.55217395360814	0
21.833333333333	-0.7287688696859	0
15.5	-0.35154628884586	0
15.666666666667	0	0
17	0	0
20.833333333333	-0.29429712828707	0
20.661339523067	-0.61041034021495	0
9	0	0
14.166666666667	-0.72876886968591	0
17.333333333333	0	0
17.166666666667	-0.35154628884586	0
18	0	0
17.666666666667	0	0
17.833333333333	-0.55217395360814	0
17.5	-0.29429712828708	0
16.258677723681	-0.75760412093209	0
12.833333333333	-0.28872883340808	0
18.166666666667	-0.35154628884586	0
18.333333333333	0	0
17.407988942986	-0.7576041209321	0
19	0	0
19.333333333333	0	0
18.666666666667	0	0
12.166666666667	-0.28867513459481	0
12.333333333333	0	0
15.833333333333	-0.55217395360814	0
20.166666666667	-0.55217395360814	0
19.5	-0.55217395360815	0
7.5	-0.28867513958836	0
23.5	-0.29429712828708	0
21.833333333333	-0.35154628884586	0
22	0	0
26.592011057014	-0.7576041209321	0
22.333333333333	0	0
23.934922518609	-1.0280995368212	0
25.166666666667	-0.35154628884587	0
25.5	-0.55217395360815	0
25.333333333333	0	0
23.166666666667	-0.35154628884586	0
23	0	0
26.666666666667	0	0
26.5	-0.29429712828708	0
23.666666666667	0	0
23.333333333333	0	0
26.166666666667	-0.55217395360814	0
26.333333333333	0	0
26	0	0
24.761501152646	-0.87509566217461	0
24.951762344863	-0.60378553647187	0
24.5	-0.35154628884586	0
33.5	-0.35154628884586	0
33.238498847354	-0.8750956621746	0
33.833333333333	-0.55217395360815	0
24.666666666667	0	0
28.166666666667	-0.35154628884587	0
28.5	-0.55217395360815	0
28.333333333333	0	0
25	0	0
24.833333333333	-0.29429712828707	0
27.761501152646	-0.87509566217461	0
27.951762344863	-0.60378553647187	0
29.333333333333	0	0
29	0	0
29.166666666667	-0.55217395360814	0
25.833333333333	-0.35154628884586	0
29.947484315848	-0.62869436758688	0
30.409983486194	-0.76921735210505	0
34.166666666667	-0.72876886968591	0
34.166666666667	-0.35154628884586	0
25.666666666667	0	0
35.445556916718	-1.0538354750779	0
35.333287434407	-0.57364431858632	0
29.666666666667	0	0
29.5	-0.28872883340808	0
26.834868536478	-1.5356869134355	0
30.833333333333	-0.28872883340808	0
30.671365010853	-0.57276869068256	0
27.666666666667	0	0
38.204670056311	-1.4270134762662	0
38.601589185276	-1.0280995368212	0
38.094834485979	-0.87509566217463	0
28	0	0
27.833333333333	-0.29429712828707	0
36.662074300781	-0.56642454030296	0
28.666666666667	0	0
31.746636025369	-1.1187108767801	0
28.833333333333	-0.35154628884586	0
33	0	0
33.166666666667	-0.29429712828707	0
33.333333333333	0	0
34.5	-0.55217395360814	0
34.731644951192	-0.92970615345739	0
35.666666666667	0	0
35.5	-0.28872883340809	0
30.333333333333	0	0
31	0	0
31.166666666667	-0.28867513958836	0
31.333333333333	0	0
38.285095678197	-0.60378553647188	0
37.833333333333	-0.35154628884586	0
30.666666666667	0	0
30.5	-0.29429712828708	0
36.5	-0.28872883340808	0
33.666666666667	0	0
36.41952417611	-0.77749898599357	0
38.5	-0.35154628884586	0
38.833333333333	-0.55217395360815	0
38.666666666667	0	0
29.657657699283	-0.83081436360664	0
40.168201869811	-1.5356869134355	0
40.5	-0.55217395360814	0
39.925344390347	-0.75760412093211	0
32.994672856401	-0.61041034021495	0
31.5	-0.35154628884586	0
43	0	0
42.666666666667	0	0
42.833333333333	-0.29429712828707	0
43.404176293252	-0.42323554094762	0
35.88498281448	-1.5034830799843	0
41.166666666667	-0.29429712828708	0
41.074655609653	-0.75760412093211	0
41.5	-0.55217395360814	0
41	0	0
41.333333333333	0	0
34.333333333333	0	0
32.166666666667	-0.35154628884586	0
32.333333333333	0	0
39.5	-0.55217395360814	0
39.333333333333	0	0
36.500673817427	-1.6307728168531	0
40.833333333333	-0.35154628884586	0
34.666666666667	0	0
35.333333333333	0	0
35.166666666667	-0.28867513958836	0
35	0	0
36.333333333333	0	0
36	0	0
12.333333329009	-0.57732068917697	0
37.666666666667	0	0
7.9035368819631	-1.2622568520387	0
28.737635378193	-1.2311528923644	0
29.212976838479	-1.0424777721347	0
28.833333333333	-0.7287688696859	0
12.66662076774	-0.57364431858631	0
38.166666666667	-0.29429712828707	0
38.333333333333	0	0
12.5	-0.28867513958836	0
39	0	0
39.166666666667	-0.35154628884586	0
20.347766676375	-1.1439190584087	0
19.833333333333	-0.7287688696859	0
40.666666666667	0	0
42.5	-0.35154628884586	0
10	0	0
18.5	-0.55217395360815	0
41.666666666667	0	0
23.428167819313	-0.87509566217462	0
42	0	0
42.166666666667	-0.29429712828707	0
42.333333333333	0	0
42.744785246826	-0.77776727251482	0
41.833333333333	-0.35154628884586	0
38	0	0
41.542494325991	-1.1832128457714	0
2.6015891852757	-1.0280995368212	0
13.258353909981	-1.6064355191183	0
4.8333333333333	-0.72876886968591	0
15.5	-0.7287688696859	0
15.8687454603	-1.0219070688786	0
16.501535203144	-1.5356869134354	0
14.833333333333	-0.72876886968591	0
12.666666666667	0	0
17.797921206366	-1.0219070688786	0
18.166666666667	-0.7287688696859	0
36.905165514021	-0.87509566217463	0
32.666666666667	0	0
32.5	-0.55217395360814	0
34.833333333333	-0.28867513459481	0
34.999999995676	-0.57732068917696	0
34	0	0
35.169838147031	-0.8650790039227	0
42.285095678197	-0.60378553647188	0
41.877780449001	-0.80261564071807	0
13.238498847354	-0.87509566217461	0
11.333333333333	0	0
11.697267761921	-1.4738194081615	0
12.166692603518	-0.86967323340335	0
3.1666666666667	-0.72876886968591	0
11	0	0
18.535412126967	-1.0219070688787	0
25.833333333333	-0.7287688696859	0
25.268255851942	-1.0280995368211	0
28.268255851942	-1.0280995368211	0
[...]
CELL_DATA 1424
SCALARS Coverage double 1
LOOKUP_TABLE default
2.8738886981846 3.1100908859575 2.028594525167 2.6150248568798 1.8261069558356 2.9836719482499 2.7936611988673 2.3179252491639 2.7629024465694 2.5902705436385 2.8281901545291 2.4290807082718 2.8253839391606 2.6480199737562 2.6708847825635 2.5951129812637 2.4809059335679 3.1962259888778 2.6304981705976 3.1976506390293 3.2531262430381 3.2220999640542 2.9342074097618 2.9481876634052 2.9572532130765 2.9297577896423 2.9514407879094 2.8517524138184 2.5219437552722 2.9370326719943 2.968740947965 2.6458158988805 2.7655162024669 2.941793802386 2.9173067410154 2.7426173249293 2.9707672257677 3.2842221272922 2.4977340734674 2.7435916826954 2.6440645866151 3.0108342822958 3.1470564162732 3.2285344671611 2.8142696574129 2.4430029690863 2.8644935984308 3.2406934746073 3.2396328212017 2.1118399428632 2.9672965440864 3.0476783737284 2.7071183904821 2.3495539927495 2.7990707447105 2.6250566577666 2.4920437961363 2.4156872671382 2.8701474349662 2.9343046538464 3.3007169933651 2.8691048802149 3.1240997952056 2.3539995341682 2.6333153093493 3.0904702023122 2.9812889647739 2.9195483241528 2.6751835796726 2.7977801919557 2.9263674369647 2.723630147171 2.8312566326411 2.6026605272399 2.4026568230393 2.735705905054 2.8595850508342 2.7760451466021 2.4438515344423 3.0362850541061 2.7998162140348 2.5566370505303 2.7311802156614 3.0728825256519 2.5900221784197 2.7929070688638 3.017877865305 2.8563470227707 2.8576693195872 2.3212052096154 2.7958047859415 2.4243063128547 3.0512144913507 2.6288292296158 2.5111118812165 2.9455423007809 2.347927024845 3.0485255022076 2.7528910886824 3.009889411051 2.6558168128935 3.076486767302 2.6708437377092 3.0082465844358 2.8541451522904 2.7086948789611 2.8201377677158 2.7488393183859 2.8251571490115 3.0368594719167 2.6638499810466 3.2129723751051 3.2555064734347 3.0583273421807 2.6658767433816 2.8714038345673 3.1317411120476 2.8169752928172 3.1480322957122 2.8802728397208 2.7691566458648 2.8943562234272 2.9459891959171 2.8083425432547 2.7418588539031 3.0630935570084 2.7619585375155 2.7862770835212 2.9000020926523 2.8264360451064 3.2977334120222 2.7548871230456 3.043102229675 3.2439255131282 2.644243272616 2.9316172143585 2.8814254985346 2.9666185905191 3.1881344826452 2.926240798656 3.1655839150387 3.1042958038128 2.7259841160649 2.724477380099 3.0775889301396 2.9498409521549 3.371542447768 2.9782768784027 2.7469191317681 3.189270048941 2.8698262921494 2.7589927752713 3.0176710690508 3.2076608697909 2.7811375212957 3.1850898122679 2.5872145866974 3.0545928834026 2.9938141253188 2.8668653022989 2.5709119340277 2.8135974235909 3.0996807565783 2.3008049347515 3.365417916829 2.9859829675913 2.7484394952346 3.0766610547476 2.6174329174421 2.8865588028622 3.2224316740771 3.1731093156643 2.9090146891028 3.1919711175069 2.6570081598424 2.9149522850744 2.6638344281614 3.1875267347079 3.2138159694039 3.3646916018567 2.602305823834 3.0911822832033 2.9581649954258 3.0929144080129 2.9694084261258 2.8740803295898 2.7224659776415 2.7588132729114 2.761845282723 2.3957994304881 2.7929451946631 2.7578098862767 2.903376286619 2.9140108388945 3.0846450338716 2.2374816432648 2.4190376331971 2.8102749394132 2.4747720084861 2.9748414093355 2.9401465192897 2.8152949666194 3.175289955649 2.897097862493 2.2962533337652 2.5166898609731 2.6313221855463 3.0567268955151 2.7229034441105 2.9667322735524 3.1978541453004 2.9459925842983 2.6686316995951 3.114084921569 2.6749721360925 2.9642827438764 2.8102859066821 2.6998801717712 2.7462193142032 2.4361076241813 2.8648959913125 2.5716653738566 2.5461776073725 2.6629663513401 2.4897859481233 2.8301495098253 2.8547431032139 3.0563373502083 2.8741447689835 2.7552054319696 3.0483152458359 3.0987921639288 2.5586292856432 2.8634607360207 2.5354860378703 2.8983373844609 2.722584083985 3.2069350863141 2.9344003830481 2.9532595803205 2.8727097012064 2.6739081210627 2.7033127739415 2.8738514978173 2.6954543994127 2.9631679229115 2.8803760495191 2.2148364923261 2.7324133098053 2.7468604206052 2.9774860703532 2.5845633236035 2.7333758865044 2.6499411596142 2.7922931895303 3.0798550323738 2.6758966800991 2.8645791754533 2.3082023519824 2.456710702503 3.1499366496043 2.3167441812488 2.6239428745823 2.7882602919628 2.5714598129159 2.8100846502479 2.5442816042932 2.6114781250105 2.72895543634 2.2526246169823 2.5599099958474 2.6602765580579 2.5417263905289 2.5580300585039 2.4694053446085 2.6627596102061 2.779706536289 2.8055029592554 2.651238496082 2.6539288917638 2.7985220991249 3.195878993384 2.8886165452303 2.5409445374871 2.6780654595099 2.6617641548538 2.7890917693087 2.7158270047421 2.8040641899634 2.8340384628747 2.6838937298932 2.7990234346102 2.8207537077491 3.3858767336902 2.8606029168663 2.9284673101185 2.7775347423781 2.8177951150844 2.8486844973247 3.3742731492763 2.8726789677352 3.0344725643052 2.7793369478941 2.5762480986098 2.967283622793 2.7822597519657 2.830003993373 3.3640353310337 2.9531606443673 2.9624566643875 2.9451354916777 3.3299970144199 2.6880713475313 2.7974109424494 2.6106886998954 2.3858111734325 2.9073033195256 2.6131722006868 2.6665642324955 3.0861874443443 2.7079885187122 3.0228103787064 2.8306829492541 2.9837941291776 2.351303994804 2.4009393752696 2.5821231070613 2.5545751152785 2.6421362535865 2.7507950231763 2.5740892103492 2.498471292573 2.6283058151683 2.8371770157475 2.7993429183053 2.9090513542825 2.3679548629374 2.2447049124727 2.881678522462 3.2393127874946 2.9687570793504 2.8244628548648 2.6658501657384 2.6905316813015 2.6307583278591 2.7996183008007 2.6940670234533 2.8744529299668 2.7105722997491 2.6961625198489 2.9363971688714 2.5330412554809 2.2857675713162 2.5816952865262 2.5045435049085 2.3444898391539 2.7165698924732 2.7076376116712 2.4091473183249 2.9468220422427 2.6373333265376 2.4930685516609 2.5497773147078 2.6775719519736 2.5771367983385 2.6568147729556 2.3968339949796 2.8958704197417 2.7827182920328 3.0122631888387 2.7233541745897 2.6652371904884 2.6968619792859 2.9260599598233 2.799297778037 3.0264218630839 2.7561940307813 2.9441825634059 2.910508056064 2.6794005697677 2.7626421519049 3.0308240495853 3.206855672312 3.1420523592829 2.6115945785063 2.778410132723 2.8224576055304 2.8947715741476 2.5626885114122 2.7590123929647 2.9063948259998 2.7048477818211 2.6091877188557 2.8189950892879 2.6335694564083 3.3799450838496 2.4867104626717 2.5133555714374 2.3717129717773 2.5995484941182 2.270590339825 2.4634019775271 2.3080438827219 2.3669879622631 2.5751247790603 2.3426754531919 2.3157830372366 2.8775201692694 2.471396152796 2.5511447531947 2.6165075585206 2.7059325585116 2.569442889946 2.6769295639443 2.5260476273674 2.7402917323101 2.6809653982526 2.2742135034738 2.5206669412026 2.5453257897358 2.3787984158225 1.9777558939838 2.5333843610091 2.6022076530752 2.7882269778391 2.6477135238692 2.7961738613732 2.6614903576421 2.2029241025011 2.7750306584591 2.6095225696541 2.7476440336597 2.5586098509506 2.8676133760337 2.5779288711743 2.9031920130777 2.5865545794322 2.2597452011582 2.2613362041169 2.7278386275226 2.7221344888465 2.8098162010881 2.5833513892246 2.4177674295344 2.2242035123277 2.8264775389399 2.6261377482234 2.8479746257124 2.6435854572602 2.7012354459652 2.4515243248459 2.4490596786813 1.8998602944328 2.5722941862901 2.4160390096399 2.0503571376967 2.1974504004512 2.4151081683735 2.4733430159215 2.4986724330568 2.5424348974638 2.9122823271997 2.4465305905931 2.2320421998015 1.9201896972853 2.1666892884309 2.6323821190758 2.3918241938114 2.428142500424 2.0522255672258 2.6905713279685 1.7997713834684 2.7445953143087 2.5251242804057 2.5552254691451 2.4958893807326 2.7732985273073 3.2516404880733 2.3773285638806 3.0676286325587 2.5513827627793 2.5602093767065 2.5613841963221 2.6473107579607 2.3836189698244 2.6123401504751 2.551887711658 2.5708447621743 2.2305868533587 2.6530292168298 2.4618665007672 2.6757003327818 2.0737956119936 3.0757714616758 2.5524254930678 2.4860921191865 2.2913149278076 2.3936036136877 2.5334978515737 2.661943798136 3.0152578837466 1.7013805848543 2.6925335473494 2.6368200198927 2.3422761203706 2.4562878073042 2.0262008893587 2.1406966614415 2.5645716962046 2.2688407588784 1.8496607547896 2.4829972591046 2.356041088525 2.8175530940566 2.0877114033775 2.3155330854666 2.2989614504504 2.3781701827958 2.0740890675695 2.0890998765625 2.493828815192 2.6588431116029 2.4899714786851 2.4417354777696 2.2953233222409 2.3357437231414 1.9834498915432 2.4938438234818 2.2109550962184 2.2012816332585 2.5061060227993 2.3949915215644 2.5933451336484 2.3667630135545 2.1429979245005 2.5236616376987 1.8269887516328 2.1677175922263 2.421829873509 1.6252681227915 2.2705126024391 2.2611435488381 2.5616867244732 2.3575159408008 1.7702152425476 2.5694850304408 2.5487090472888 2.6194229950231 2.6401900435798 2.4837018898631 2.390311537565 2.4684061589377 2.4450640996298 2.4563675980178 2.089946909172 1.9755199513459 2.644153026688 2.5256970214769 2.3226258697945 2.4075309689785 2.3391745010749 2.6935164119444 2.4130855819157 2.2493069973061 2.224557033001 2.2621642476705 2.383798469656 2.5577997041815 2.9565603357676 2.6303288554382 2.0042682719559 2.4774794201844 2.843876056727 1.9696785621704 2.4061233293762 2.4102591160282 2.2953024733531 2.2915624324208 2.6517982315468 3.0383109421324 2.3822526295688 2.3307327903949 2.3257572018808 2.3817962917636 2.7266613921969 2.4764903800097 2.1591107463091 2.1454747543412 1.6605912386664 2.0970189690295 2.1852993311839 1.7730893292712 2.7803740001094 2.6449483744128 2.3323503614822 2.2582369328509 2.7115682915949 2.6243259923345 1.9555999129708 1.3126949776014 2.2610943323015 2.3197634893164 2.1176975621516 2.8226760502214 2.0449284002679 2.002801682906 2.5455711495069 2.7418753174924 2.4227877957643 2.3028207864169 2.4038428689539 2.334825443291 2.1453531217793 2.466462749211 2.1528036265242 2.3423733534467 2.4855652864011 3.1997967977771 2.1424447965632 1.9684900644699 1.9374650258278 2.1750896708692 2.0809600656133 1.9228100029751 2.1777680587986 2.2259347205655 2.3009864211459 2.0330547600591 1.9651042099456 2.5230866758276 2.4195715473659 2.5979950845795 2.2988458422492 1.8075654042399 2.3905934473676 1.6877929811496 1.5626261347252 1.8558218208371 2.3304733737238 2.7019007193928 1.968904876184 2.715333511003 2.1091459266719 2.1625862425094 1.9660754277828 2.2703088666202 1.9705000225286 2.5270178572089 1.88861446998 2.2469009392504 2.0661900047265 1.6297982878039 2.0846658102989 2.1369396241107 2.254491023192 2.2100987789839 2.2772805240613 2.0495652734049 2.3698497886427 2.7706779731645 2.0150484108503 2.2917520165229 2.2029222055579 2.1657245124259 2.347629322376 2.0914497564356 2.0978951267691 2.6596081205327 2.4387801859402 2.1356972066018 2.8619199378166 1.5629270332408 2.011282041309 2.6837495509339 2.0690412733294 2.2978155529363 1.2882342023563 2.0335109669306 2.7712502717954 2.1602601542888 1.8359207746851 1.8992260705306 2.2800607990026 2.1205602682563 1.8623491975178 2.139127804365 1.9396775684671 2.0846453861701 1.93283035828 2.3180313222287 2.037820172105 1.9005235450418 2.1186795610276 2.0611628564955 2.1339543122137 1.9998521400412 2.0180843433945 2.9043063015544 1.9899937585731 2.1133259689862 2.3109467666299 2.1465627314695 1.9848889119393 2.2173826018214 1.7155091487996 1.91778052609 1.795063833608 1.8697515856903 2.0406945877066 2.725647165148 2.3006131161097 1.9495973862258 1.7029316357373 2.3771670829306 2.0516859699133 1.366174631697 1.8120025711159 0.57241370248676 0.74462909534028 1.9812141648923 1.9248827992475 1.8168244094866 1.3634067192544 2.1231292274316 0.85184220480508 2.5316837056465 2.6747111274697 1.9276159748914 1.4140161993201 1.207195111808 1.8056999396514 2.5230220790629 1.6316384608982 1.8152899525974 1.8111788862046 2.4282016500568 1.7725561823558 1.838640318148 1.9717783549614 1.6494416372503 2.1172947732862 1.9058665903914 2.0628945244005 2.0228191651957 2.0741710567334 1.8643453989472 1.6236647836912 1.9944997472031 2.2800196959811 1.53292485727 2.466753658667 2.6148720478426 2.4802165893936 1.8412159256345 2.2994990157167 1.6296470702794 1.6429731044144 1.700484559253 1.6867726312539 1.9222894874905 2.0807487198434 2.1176476661581 2.9043648287063 1.7172266026194 1.6499575213706 1.5102582528049 1.5774248060521 2.3721366975685 1.9268821177217 1.7393766742983 1.9327139436386 1.690429885075 1.3517893696095 1.3409755803052 1.9192360894771 1.5373767587242 1.468545891803 1.5400756660172 1.7970208069255 2.2139401770966 1.2362508504786 1.8479858587605 1.2074800051899 1.4814127822726 1.6116499504014 1.9754464197919 1.7376904612143 2.2060229529202 2.0097020329927 1.987638994156 2.0844523804646 1.652228756454 1.8335145304111 1.8496223641757 1.7198736793821 1.8086003898871 1.9128220708038 1.4861299392743 1.9908351066822 1.7254864050185 1.6253542038637 1.7640937857739 1.823630990788 1.8359162526786 1.147076391354 1.9724422903744 1.6301838422978 1.7473463141429 1.5053075538502 1.7530750852112 1.4693056400657 1.4305163894386 1.6214834958276 1.6603492215824 1.4652250912649 1.6817666132712 1.5800619075593 1.3479551507464 1.4824156809812 1.5049414270365 1.1663317357737 1.659489782002 1.2633331373081 1.6860740160065 1.5219202071757 1.549388542721 1.2752347044786 1.3536826098584 0.9308821107282 1.2201323230179 1.4425694775988 1.2580910845763 1.1656920495754 1.4651842379661 1.3663995531324 1.5380160645682 1.0795850480247 1.7017584916154 1.8838945353747 2.0330680910644 1.6477847498893 1.4232401373847 1.4784974148195 1.5746561656038 1.4114874934454 1.3109875432226 1.8714180469342 0.93632977309241 1.4686587218922 1.6530443074794 1.745206834742 1.6472302582776 1.5400516108267 1.4254482969547 1.4206761380858 1.1980150947311 1.0829732861838 1.2582422191182 1.4388397515678 1.3135965322952 1.465136390988 1.1057795433769 1.7430284160615 1.3828367384937 1.672956054801 1.7447475133416 1.3233011387578 1.2967126393858 1.5640548158329 1.5710972421596 1.264750075681 1.3992334016081 1.3155421683083 1.4494559356562 1.3224480578198 0.78627978645542 1.2160246489177 1.504753643176 1.2433714089327 1.0171190759091 1.4362412191452 1.2939779612705 1.2229050030759 1.1228253820105 1.4341746728837 1.0606109994573 1.1766009929649 1.2024385282115 1.199582415369 1.0184837856932 1.1275837792924 0.68604558015501 0.88022969794478 1.0275102657357 0.89675021052165 1.2409495371675 1.3080346615741 1.2067521080913 0.96261508807491 0.73418657976097 1.0407830622978 1.0842843550352 1.5818138905456 1.2078986957018 1.0731622695943 0.96635411188452 1.1524603379134 0.98921684580098 1.20555825086 0.43096349570608 1.0872984629853 1.4730534548965 0.89232978636416 1.0745241470608 0.70187125537116 0.77617675389271 1.0071565897211 1.2288087606931 0.86514277661783 0.91047326733409 0.90739627609652 0.62801072369678 0.89630078176823 0.44776173114335 0.39314714077821 0.44452955971855 0.5815143436995 0.76086940933445 0.82539444707664 0.80262151326538 0.69864571908711 0.74899839716837 0.83658208156706 0.85310336776344 0.41799894156807 0.72270054892276 0.94711303942651 1.6576911684934 1.6308854511526 1.1400450012488 1.3211572621915 1.0585302913307 1.176595783673 1.1394471159008 0.65815429230496 0.76655421286354 0.63606850720612 0.64028048971268 0.63295149611944 0.76281207474017 1.0421158398428 0.6417543651634 0.60208320153124 0.72528472004361 0.82995502546199 0.55126098513742 0.5358128249213 0.78255150971364 1.4591075887665 0.7449915573318 1.4370919242675 1.1252888008811 1.4683586002898 1.4911201721029 1.364782910189 1.3260976022435 1.131322478858 1.2433676574913 1.243100892561 0.79533911044477 0.65013313597601 0.46998813730471 0.40733475524952 0.41439706978242 0.86507559466124 1.1621034893511 1.0631335043385 1.3291186706759 0.75928096359837 0.85060058307115 0.94491908823886 1.2755135561389 0.98799011383251 1.2271363770845 1.0810908187317 0.90078509470024 0.76043303639736 0.68430412580675 0.52543843838229 0.78699006490375 0.44724592698058 1.0213860201687 1.0302131680865 1.4222635818423 1.1319033354107 1.236159169158 1.21675161372 1.4720969687583 1.0291063576018 0.95872568162663 0.59463342981135 0.92288251635305 0.85870339964959 0.92690584054606 0.90072580222332 1.0798574136629 0.50447290040347 0.64222418069461 0.69376908992932 0.57165830499198 0.77344872143363 0.44384964992664 0.53289816688164 0.80065571898233 0.89023831057162 1.0274828296573 0.6451717842655 1.1380407988203 0.72452318583937 1.3174915137752 0.96946335749368 0.73964873432994 1.1245417588799 0.91705946341427 1.0796349632269 1.0089627690593 0.49985116980257 0.41456786702778 1.0667301443693 0.70314166084025 0.72211457519578 0.60914489345052 0.64901277071864 1.1008815613379 0.49257425218565 0.64225631611421 0.82429749958858 0.70180544717423 0.95436887903444 0.88148803436702 0.57296482206516 0.46334674048339 1.095959233366 1.0227193595165 1.1697673127 0.86237470321008 0.91674714840834 1.0139336114019 0.93436240925328 0.75975162556794 0.83243163223015 0.94916607785563 0.55597454598167 0.4391003710892 0.80857254288501 0.50372312129061 0.76016316763179 0.76949620642655 0.39097526432914 0.5026549809152 0.55146008451052 0.61532469971908 0.84394942569768 0.94923403841131 0.75765806438198 0.4493492316267 0.85728962217069 0.43546186531885 0.42956773882152 1.0331183113502 0.52246011894896 1.337800677252 1.1639398858144 0.71618972906045 0.76895294155077 0.4952091371083 1.1271197044325 0.62049539108086 0.56012819889543 1.65845766449 1.3069048304791 0.59832245578924 0.74999671373468 0.68988173228751 0.48859418152847 0.4497773068952 0.49354984385552 0.40488646134159 0.54333654306604 0.40158365109036 0.46467556781948 0.52193244558202 0.71449623737535 0.58447531275589 0.52331771700511 0.40413117038016 0.65288005573267 0.44496128451586 1.6276802831513 1.2856699886651 1.1265214765259 1.0122634499047 0.46200182173368 0.51864110609699 0.59724145140499 0.43572542821275 0.41577807494427 0.57136910473823 0.93812456024149 0.71814235465276 0.68214540871009 0.56241165713788 0.40956730660195 1.1349072266129 0.81875220698633 0.55416115379305 0.41916155469593 0.59952860131433 0.46311986904928 0.49004135631913 0.40741968338327 0.42602557949657 0.56663389033594 0.71945383766308 1.112180625554 0.6358911534998 0.5845301930512 0.67839716756554 0.78345358379119 0.71137386119675 0.40558681856704 0.64026628664969 0.78509062533139 0.84736938977685 0.88839073233822 0.9576610896313 0.90110138167721 0.8004321288389 0.73686288855873 0.85864816299076 0.61626494580591 0.65401487383926 0.58947558778319 0.8411027674836 0.44521997668429 1.0954096863451 0.79395277046252 1.253288551301 1.1075390556121 0.70818431269968 0.66839955849375 0.70604483534242 0.53867372440777 0.62863028997005 0.40018564442419 0.86546105029989 0.62811596878413 0.72599527245746 0.8605524419998 0.7714869527682 1.1071166346728 0.65091969516173 0.68996328800311 0.77460375358023 0.74847428406081 0.63357692487937 0.46411369855864 0.53154877456101 0.89249813087992 0.68417157184628 0.92832264088524 1.0176484919367 1.013168409727 1.4161890709854 0.40699456857459 0.55383540068922 0.88951034625416 1.033374875175 1.515072162911 1.3805764369191 0.81114619845722 0.69471691521095 1.8008368514116 1.6221692550111 1.3512228913405 1.536628020329 1.2983618064122 0.74185159669284 1.5881462142257 1.3295475103666 1.1922759779963 1.2916721844726 1.099976624782 0.85858513378123 0.94564638780859 1.0935899733902 0.91715515677914 0.93347845246235 0.84162326242264 1.216601030688 1.4914492524411 2.0157461325724 1.6962652495323 1.4334563573563 1.2123498919362 1.1183358003001 0.69056252960476 1.1939674315718 0.98235522285245 1.2807818416221 1.010178028988 0.97982239073047 0.81896627160768 1.1288866319429 0.78324982518708 0.72461123945039 1.0598716316262 1.9514787186616 1.8081839673825 1.9365533305 1.5455491322967 1.0153080495784 1.2593782147582 1.3927736026516 1.3254377184478 1.2693069557448 1.2256042628315 1.2357412496892 1.3716630422358 1.1365695966253 0.93310107089492 1.8008850975514 1.5982751666922 0.65494938575771 0.36566260296186 0.53138508477085 0.43439589624947 1.2298182784443 1.4728380219562 0.49814448882484 0.43