# vtk DataFile Version 3.0
d-2__ created by libgimli-v1.5.0-1-g5991b6ac
ASCII
DATASET UNSTRUCTURED_GRID
POINTS 803 double
8.3333333333333	0	0
8.5	-0.29429712828708	0
8.6666666666667	0	0
21.166666666667	-0.35154628884587	0
21.333333333333	0	0
21	0	0
-0.13949540192174	-0.65832226163824	0
0.26765699968102	-1.1941152153012	0
0.50098922076846	-0.451860121227	0
11.833333333333	-0.28867513459481	0
11.666666666667	-0.84084908820295	0
12	-0.57735026571174	0
-1	0	0
-0.82347194173878	-1.6006755924119	0
21.666666666667	0	0
21.5	-0.55217395360815	0
1.1666666666667	-0.35154628884586	0
1.3333333333333	0	0
1	0	0
1.5	-0.55217395360814	0
23.61842901153	-0.60378553647188	0
24.166666666667	-0.55217395360814	0
23.833333333333	-0.35154628884586	0
1.6666666666667	0	0
8.1666666666667	-0.35154628884586	0
1.8333333333333	-0.35154628884586	0
2	0	0
4.8333333333333	-0.35154628884586	0
5.1666666666667	-0.55217395360814	0
5	0	0
2.6666666666667	0	0
2.3333333333333	0	0
2.5	-0.35154628884586	0
2.1666666666667	-0.29429712828708	0
8.4079889429861	-0.75760412093209	0
9.0144333430414	-1.1439190584088	0
8.8333333333333	-0.55217395360814	0
13	0	0
13.166666666667	-0.29429712828707	0
13.333333333333	0	0
3.1666666666667	-0.35154628884586	0
3.5	-0.55217395360814	0
3.3333333333333	0	0
16	0	0
16.166666666667	-0.29429712828708	0
16.333333333333	0	0
3.6666666666667	0	0
3.8333333333333	-0.29429712828707	0
4	0	0
4.3333333333333	0	0
4.1666666666667	-0.35154628884586	0
27	0	0
26.833333333333	-0.35154628884586	0
27.166666666667	-0.55217395360814	0
3	0	0
16.5	-0.35154628884586	0
16.666666666667	0	0
2.8333333333333	-0.55217395360814	0
13.5	-0.35154628884586	0
13.666666666667	0	0
4.5	-0.55217395360814	0
4.6666666666667	0	0
3.9253443903472	-0.75760412093208	0
29.833333333333	-0.29429712828707	0
30.166666666667	-0.35154628884587	0
30	0	0
35.905165514021	-0.87509566217462	0
36.166666666667	-0.35154628884586	0
35.661339523067	-0.61041034021497	0
5.5	-0.29429712828708	0
5.8333333333333	-0.35154628884586	0
5.6666666666667	0	0
5.3333333333333	0	0
27.333333333333	0	0
27.5	-0.35154628884586	0
35.833333333333	-0.29429712828708	0
6.1666666666667	-0.55217395360814	0
6.3333333333333	0	0
6	0	0
37	0	0
37.166666666667	-0.35154628884586	0
37.333333333333	0	0
10.741322276319	-0.75760412093209	0
11.175685896383	-1.113902458684	0
11.166666666667	-0.55217395360814	0
6.5	-0.35154628884586	0
30.795730030397	-1.0103532830333	0
31.229185900173	-0.87228466782526	0
31.000045632922	-0.57199295442671	0
31.666666666667	0	0
31.833333333333	-0.55217395360814	0
32	0	0
40	0	0
40.166666666667	-0.35154628884586	0
40.333333333333	0	0
6.8333333333333	-0.29429712828708	0
7.1666666666667	-0.28872883340808	0
7	0	0
7.2211097499487	-1.0538354750778	0
7.0053271435993	-0.61041034021496	0
6.7615011526461	-0.87509566217461	0
9.5	-0.29429712828707	0
9.3333333333333	0	0
9.1666666666667	-0.28872883340808	0
7.3333333333333	0	0
39.666666666667	0	0
39.833333333333	-0.29429712828708	0
13.674580112811	-1.7184248716052	0
14.353791495618	-2.0265268011931	0
13.958469529133	-1.3940906823913	0
7.6666666666667	0	0
7.8333333333333	-0.55217395360814	0
8	0	0
12.994672856401	-0.61041034021496	0
5.5920110570139	-0.75760412093209	0
5.8348685364776	-1.5356869134354	0
9.8333333333333	-0.35154628884586	0
9.5718321806872	-0.87509566217461	0
10.166666666667	-0.55217395360814	0
7.33337923226	-0.57364431858631	0
10.36828810089	-1.6552861219901	0
6.6666666666667	0	0
36.666666666667	0	0
36.833333333333	-0.29429712828708	0
37.5	-0.55217395360814	0
24.333333333333	0	0
24	0	0
12.503171480364	-0.86507900392268	0
12.328351644367	-1.416191408927	0
12.778890250051	-1.0538354750778	0
11.5	-0.28867513459481	0
19.666666666667	0	0
19.833333333333	-0.35154628884586	0
20	0	0
9.6666666666667	0	0
20.5	-0.28872883340808	0
20.666666666667	0	0
20.333333333333	0	0
20.905165514021	-0.87509566217461	0
10.5	-0.35154628884586	0
10.333333333333	0	0
9.3280061897341	-0.61041034021496	0
10.833333333333	-0.29429712828707	0
10.666666666667	0	0
22.833333333333	-0.55217395360814	0
22.5	-0.72876886968591	0
22.915493514149	-1.1101467813362	0
5.2020787936337	-1.0219070688786	0
18.833333333333	-0.29429712828707	0
18.925344390347	-0.75760412093207	0
19.166666666667	-0.35154628884587	0
22.666666666667	0	0
22.5	-0.35154628884586	0
13.833333333333	-0.55217395360814	0
14	0	0
16.833333333333	-0.55217395360814	0
0	0	0
14.166666666667	-0.35154628884586	0
14.333333333333	0	0
14.5	-0.55217395360814	0
14.833333333333	-0.35154628884586	0
14.666666666667	0	0
15	0	0
15.166666666667	-0.55217395360814	0
15.333333333333	0	0
2.0948344859795	-0.87509566217461	0
2.2850956781966	-0.60378553647187	0
12	0	0
11.666666666667	0	0
22.166666666667	-0.95506458788032	0
22.166666666667	-0.55217395360814	0
21.833333333333	-0.7287688696859	0
15.5	-0.35154628884586	0
15.666666666667	0	0
17	0	0
20.833333333333	-0.29429712828707	0
20.661339523067	-0.61041034021495	0
9	0	0
14.166666666667	-0.72876886968591	0
17.333333333333	0	0
17.166666666667	-0.35154628884586	0
18	0	0
17.666666666667	0	0
17.833333333333	-0.55217395360814	0
17.5	-0.29429712828708	0
16.258677723681	-0.75760412093209	0
12.833333333333	-0.28872883340808	0
18.166666666667	-0.35154628884586	0
18.333333333333	0	0
17.407988942986	-0.7576041209321	0
19	0	0
19.333333333333	0	0
18.666666666667	0	0
12.166666666667	-0.28867513459481	0
12.333333333333	0	0
15.833333333333	-0.55217395360814	0
20.166666666667	-0.55217395360814	0
19.5	-0.55217395360815	0
7.5	-0.28867513958836	0
23.5	-0.29429712828708	0
21.833333333333	-0.35154628884586	0
22	0	0
26.592011057014	-0.7576041209321	0
22.333333333333	0	0
23.934922518609	-1.0280995368212	0
25.166666666667	-0.35154628884587	0
25.5	-0.55217395360815	0
25.333333333333	0	0
23.166666666667	-0.35154628884586	0
23	0	0
26.666666666667	0	0
26.5	-0.29429712828708	0
23.666666666667	0	0
23.333333333333	0	0
26.166666666667	-0.55217395360814	0
26.333333333333	0	0
26	0	0
24.761501152646	-0.87509566217461	0
24.951762344863	-0.60378553647187	0
24.5	-0.35154628884586	0
33.5	-0.35154628884586	0
33.238498847354	-0.8750956621746	0
33.833333333333	-0.55217395360815	0
24.666666666667	0	0
28.166666666667	-0.35154628884587	0
28.5	-0.55217395360815	0
28.333333333333	0	0
25	0	0
24.833333333333	-0.29429712828707	0
27.761501152646	-0.87509566217461	0
27.951762344863	-0.60378553647187	0
29.333333333333	0	0
29	0	0
29.166666666667	-0.55217395360814	0
25.833333333333	-0.35154628884586	0
29.947484315848	-0.62869436758688	0
30.409983486194	-0.76921735210505	0
34.166666666667	-0.72876886968591	0
34.166666666667	-0.35154628884586	0
25.666666666667	0	0
35.445556916718	-1.0538354750779	0
35.333287434407	-0.57364431858632	0
29.666666666667	0	0
29.5	-0.28872883340808	0
26.834868536478	-1.5356869134355	0
30.833333333333	-0.28872883340808	0
30.671365010853	-0.57276869068256	0
27.666666666667	0	0
38.204670056311	-1.4270134762662	0
38.601589185276	-1.0280995368212	0
38.094834485979	-0.87509566217463	0
28	0	0
27.833333333333	-0.29429712828707	0
36.662074300781	-0.56642454030296	0
28.666666666667	0	0
31.746636025369	-1.1187108767801	0
28.833333333333	-0.35154628884586	0
33	0	0
33.166666666667	-0.29429712828707	0
33.333333333333	0	0
34.5	-0.55217395360814	0
34.731644951192	-0.92970615345739	0
35.666666666667	0	0
35.5	-0.28872883340809	0
30.333333333333	0	0
31	0	0
31.166666666667	-0.28867513958836	0
31.333333333333	0	0
38.285095678197	-0.60378553647188	0
37.833333333333	-0.35154628884586	0
30.666666666667	0	0
30.5	-0.29429712828708	0
36.5	-0.28872883340808	0
33.666666666667	0	0
36.41952417611	-0.77749898599357	0
38.5	-0.35154628884586	0
38.833333333333	-0.55217395360815	0
38.666666666667	0	0
29.657657699283	-0.83081436360664	0
40.168201869811	-1.5356869134355	0
40.5	-0.55217395360814	0
39.925344390347	-0.75760412093211	0
32.994672856401	-0.61041034021495	0
31.5	-0.35154628884586	0
43	0	0
42.666666666667	0	0
42.833333333333	-0.29429712828707	0
43.404176293252	-0.42323554094762	0
35.88498281448	-1.5034830799843	0
41.166666666667	-0.29429712828708	0
41.074655609653	-0.75760412093211	0
41.5	-0.55217395360814	0
41	0	0
41.333333333333	0	0
34.333333333333	0	0
32.166666666667	-0.35154628884586	0
32.333333333333	0	0
39.5	-0.55217395360814	0
39.333333333333	0	0
36.500673817427	-1.6307728168531	0
40.833333333333	-0.35154628884586	0
34.666666666667	0	0
35.333333333333	0	0
35.166666666667	-0.28867513958836	0
35	0	0
36.333333333333	0	0
36	0	0
12.333333329009	-0.57732068917697	0
37.666666666667	0	0
7.9035368819631	-1.2622568520387	0
28.737635378193	-1.2311528923644	0
29.212976838479	-1.0424777721347	0
28.833333333333	-0.7287688696859	0
12.66662076774	-0.57364431858631	0
38.166666666667	-0.29429712828707	0
38.333333333333	0	0
12.5	-0.28867513958836	0
39	0	0
39.166666666667	-0.35154628884586	0
20.347766676375	-1.1439190584087	0
19.833333333333	-0.7287688696859	0
40.666666666667	0	0
42.5	-0.35154628884586	0
10	0	0
18.5	-0.55217395360815	0
41.666666666667	0	0
23.428167819313	-0.87509566217462	0
42	0	0
42.166666666667	-0.29429712828707	0
42.333333333333	0	0
42.744785246826	-0.77776727251482	0
41.833333333333	-0.35154628884586	0
38	0	0
41.542494325991	-1.1832128457714	0
2.6015891852757	-1.0280995368212	0
13.258353909981	-1.6064355191183	0
4.8333333333333	-0.72876886968591	0
15.5	-0.7287688696859	0
15.8687454603	-1.0219070688786	0
16.501535203144	-1.5356869134354	0
14.833333333333	-0.72876886968591	0
12.666666666667	0	0
17.797921206366	-1.0219070688786	0
18.166666666667	-0.7287688696859	0
36.905165514021	-0.87509566217463	0
32.666666666667	0	0
32.5	-0.55217395360814	0
34.833333333333	-0.28867513459481	0
34.999999995676	-0.57732068917696	0
34	0	0
35.169838147031	-0.8650790039227	0
42.285095678197	-0.60378553647188	0
41.877780449001	-0.80261564071807	0
13.238498847354	-0.87509566217461	0
11.333333333333	0	0
11.697267761921	-1.4738194081615	0
12.166692603518	-0.86967323340335	0
3.1666666666667	-0.72876886968591	0
11	0	0
18.535412126967	-1.0219070688787	0
25.833333333333	-0.7287688696859	0
25.268255851942	-1.0280995368211	0
28.268255851942	-1.0280995368211	0
[...]
CELL_DATA 1424
SCALARS Coverage double 1
LOOKUP_TABLE default
2.8662716242896 3.1184855431833 2.0262310165033 2.5988307569833 1.8057753160218 2.9800710933667 2.8369822215087 2.3261587449834 2.7364635452625 2.6084589904886 2.8150564535233 2.4229498450538 2.8502312038761 2.6532662076866 2.686215487466 2.6097819556578 2.4735492664698 3.232215309652 2.6258106872038 3.2267675353547 3.2863439855701 3.2569053690281 2.9173521006896 2.9711046569296 2.9502602528227 2.9514533342368 2.9470228420242 2.8691725953482 2.5305298639472 2.9272381658116 2.9912759067275 2.6433565633447 2.76547041599 2.9673757893834 2.8931363375873 2.7387676940788 2.9833064938533 3.3168406807748 2.4801811412286 2.7330292950797 2.6418526600735 3.0286643559621 3.1555828506941 3.2628628633222 2.8232854614406 2.4531005233361 2.8661329960378 3.280630151362 3.2774093621995 2.1175878995398 2.9754541401464 3.0545827258285 2.7001843586653 2.3615804901327 2.7954144158103 2.6249553444196 2.5007699317416 2.4228318668019 2.8715920507031 2.948267257983 3.3332163179197 2.8720139831665 3.1230315212848 2.3532849789264 2.6027268371165 3.0882379234398 2.9925451008311 2.9069793210644 2.6540736917355 2.78760745059 2.9175661672618 2.7098044444946 2.8181629280583 2.5818675175165 2.406166993537 2.7217372373881 2.8268698537077 2.7396819588488 2.4541277441572 3.0151378867497 2.7615021218603 2.5847464817421 2.7400458414716 3.0610881023745 2.5973919875559 2.7753325180537 3.0191851991971 2.870828045052 2.8380613828825 2.3287800737236 2.7647895003113 2.4263983307631 3.0763674310042 2.6215157019511 2.5141704521247 2.9425202599132 2.3536731216493 3.0346568818967 2.7351999950305 3.03687329158 2.6236892965728 3.0779179764182 2.654420253881 2.9988198757352 2.8297697908634 2.6936440540459 2.8007426273318 2.7553974687243 2.8278692034705 3.0290454143023 2.6264973022539 3.2284430442681 3.2683297508668 3.0741323216678 2.629961518316 2.8659021291402 3.1548127789166 2.7907178163689 3.1582063152846 2.874120022957 2.7433687328051 2.8718376643569 2.9359648256751 2.7857020084002 2.7102052117918 3.0763457200384 2.7322736578115 2.8073377631128 2.9122141095373 2.8038551953211 3.324511450302 2.7285727909768 3.0389121200291 3.2736417609026 2.6266732858389 2.9218099109299 2.8676008419862 2.9458447713381 3.1914585867134 2.9042582290667 3.1857129733862 3.0979253733881 2.7173257309557 2.7172204784316 3.0809346562462 2.9443888596255 3.4017357548918 2.9828487988424 2.7371018974834 3.1931196833047 2.8573161856203 2.7412181048709 3.0026296593006 3.2049264777177 2.7827645275051 3.1999894668708 2.5761928550379 3.0538644021556 2.978241523799 2.839174694884 2.5563176739895 2.8093714294575 3.1007917198194 2.3094102696218 3.3922754972044 2.9865221244916 2.7500558097007 3.0783264297343 2.6069875944799 2.8666012214315 3.2273923773021 3.1726207990393 2.9057590910113 3.2096401458755 2.6532959481974 2.9135511862083 2.654091514003 3.1930340316402 3.2204236909722 3.395585698626 2.5984031856631 3.0978815596191 2.9710606053106 3.1027134013816 2.9739540351589 2.8807040553402 2.7173478983135 2.7592861604555 2.7342804888668 2.4094167626328 2.7844837801446 2.7454036540542 2.8879020706174 2.9342794166007 3.0902156809566 2.2969560880267 2.424783462409 2.7969982324605 2.4753241810512 2.9930235014943 2.9379950736255 2.8363668292159 3.1869900760877 2.9156290974055 2.3015753307199 2.5131837095465 2.6335695922231 3.0630239876523 2.7210234885063 2.9631689002909 3.2078954948461 2.9597090740913 2.6630189389809 3.1299808403404 2.6588419689131 2.9717240267482 2.8001692510426 2.6956596057287 2.7560046757591 2.4373693587473 2.8673347543042 2.5704165831181 2.5353029264534 2.6532803211962 2.4916834181192 2.8316964703815 2.8483516843902 3.0783348864491 2.8795824870792 2.7460349587161 3.0487111177247 3.1165095880921 2.5312297865014 2.8754011548579 2.5322542968313 2.8862348382154 2.7201464768604 3.2364384246346 2.9225626193646 2.9669570739701 2.855051476685 2.6877957093556 2.7107511000023 2.8685124323511 2.6693829234901 2.9826347180422 2.8669841666765 2.1656819705295 2.7170478298995 2.7533236599296 2.960288920199 2.5985755646855 2.7137859776671 2.6424463213939 2.7788072792427 3.0918894976411 2.6566129544719 2.8953718036821 2.3071216585389 2.4703923566809 3.1528188285215 2.3211516764744 2.6393431898388 2.7970684252868 2.5815658029043 2.8131526743083 2.5383501020159 2.6130676448321 2.7136559173148 2.2566883537953 2.5565697096752 2.6588624637212 2.5454865001047 2.5431673326401 2.458303865758 2.6387353358234 2.7584089585363 2.7835370470123 2.616432540691 2.6303659548562 2.7949439337349 3.2298084865678 2.8906936265769 2.5120223362533 2.6553350039667 2.6303241938148 2.7574018937102 2.691215167888 2.7739430021609 2.8380736389537 2.6733382341489 2.7868859443361 2.7921001569096 3.4203850845516 2.8577198162921 2.9111010106302 2.7526442477015 2.8065954040458 2.8286855712234 3.4045053992617 2.8681930305156 3.0201778106106 2.7475589354195 2.5738417389988 2.9590488958327 2.7724174569008 2.8176652222481 3.3944735396842 2.9532541847889 2.9545829413489 2.9374167517917 3.3552019368053 2.6821630825498 2.7928218278255 2.5985412294984 2.3886817844552 2.9015867594378 2.6049070831466 2.6845046338596 3.1021252519908 2.7037138519387 3.0358568003152 2.816472908688 3.0112104298461 2.3147848104284 2.4068089577606 2.5813326006947 2.5556482774769 2.6481478547937 2.7678675792172 2.5858226273068 2.4948160922308 2.6131920742312 2.8332312141947 2.7781790800438 2.9086801161228 2.3708181268066 2.2543430760273 2.8717124456506 3.2787648600003 2.9701376153412 2.8048541893648 2.6504964510297 2.6655409699164 2.6177838359341 2.7676965192926 2.6655424031488 2.8581801275381 2.6894030740033 2.6691920179085 2.9169817312923 2.5525773671077 2.2892308097918 2.5881437629595 2.5136995523992 2.3482842793111 2.6926206262578 2.7082761367666 2.4129183091208 2.9512385316771 2.6245910743998 2.4836554648239 2.5432731011602 2.6483547114077 2.5568068292124 2.6360247212321 2.3930051211886 2.873634037602 2.7634791069088 3.0155674188209 2.7069546703231 2.6498931763578 2.6923039024227 2.9048262184951 2.7810494684333 3.0274801474941 2.7389588537673 2.9230567756416 2.9064007780949 2.6663839131349 2.7461998211971 3.0371932017889 3.2221070078014 3.1608002897109 2.5916100631562 2.7794489262364 2.8155663919007 2.8809305183596 2.5483464797126 2.7431747617494 2.9072915860469 2.7068853353901 2.612641395452 2.8211228755414 2.6272713242468 3.4075199824704 2.4831548092021 2.5452514740467 2.3787961880719 2.6120355884107 2.2977308765533 2.4620353111694 2.3204586186131 2.3710154054055 2.5631580269222 2.3347092971284 2.307336481536 2.8898889614798 2.4665594418136 2.5221089732875 2.6104405799422 2.677568079874 2.547310750932 2.6470735072212 2.5032169261489 2.7144209533948 2.6734035382425 2.283758835104 2.52426342262 2.5523769211572 2.3883655941535 2.0079439408396 2.5300542996346 2.586044673474 2.7767470236222 2.6263126835467 2.7767501222494 2.6423145043941 2.2279084776862 2.7726788920434 2.5895821578556 2.7257970182839 2.5489626352708 2.8694411192151 2.5654342044978 2.9022530873285 2.5891623506159 2.2670709229307 2.2679530738085 2.7025445270505 2.7077526147386 2.7850154555331 2.5573450756344 2.4251228053074 2.2258142321371 2.8218663237261 2.6219836654521 2.8396558639315 2.6383445566123 2.697376657527 2.446010159194 2.4682122842933 1.9111283946787 2.5517476314134 2.4096976929017 2.0571593560764 2.2009838624581 2.4195647980714 2.4625209110345 2.4840355756476 2.5379204207242 2.9047010937242 2.4596664792813 2.2342489168469 1.9510965466551 2.1666124995904 2.6379593523002 2.3941208451389 2.4305227951409 2.0896259544203 2.686714726388 1.8349544637249 2.734400235074 2.5158800207221 2.5401990750549 2.4884106048122 2.7724011419684 3.2763697233019 2.3903000228459 3.0698701427963 2.5184029956689 2.5407008931418 2.5656877052578 2.625354192886 2.3793544881918 2.6044036795078 2.5212881614516 2.5465946818662 2.2450140554693 2.640722926442 2.4702365136762 2.6692980778286 2.1035129536489 3.0984182617092 2.5352213575816 2.4612830308096 2.3123446230725 2.4042405566129 2.5266065037754 2.6454856170279 3.0201108705148 1.7519846346596 2.6911941543103 2.6237643073602 2.3493439624915 2.4627899972484 2.0463884051094 2.1724897766976 2.5414616920396 2.269396880525 1.8735513898736 2.4684639568252 2.3595318599019 2.8145311866271 2.1186475814891 2.3242914002831 2.3069893188972 2.3771699444682 2.0725424164059 2.103977326681 2.4843078203598 2.6599357649228 2.4976570744909 2.4471161133331 2.2920691100664 2.3373402619027 2.000996723467 2.476025683065 2.2153688058807 2.2209210977333 2.4918775287555 2.3896427176775 2.5800566951544 2.360347289832 2.1584338820866 2.5182796225859 1.8611795756509 2.1745524040942 2.4336851801165 1.6586546749068 2.2900633789844 2.2800317111418 2.5381380234299 2.3479096961624 1.8252496046404 2.556782048469 2.5247219108781 2.6026562589746 2.6148524196221 2.4625431157211 2.3682055078818 2.4473231858934 2.4317588244703 2.446183945199 2.118504457677 2.0150972582448 2.6195421794145 2.5182885372027 2.3347043943754 2.414495875415 2.3348442788188 2.6799371469938 2.3917230637536 2.2533211099948 2.2390010503668 2.2736103717924 2.3854204624696 2.5447441898865 2.9634899160638 2.6209662697967 2.0241042381102 2.4835722503145 2.8381957577091 1.9934757157487 2.4065153854643 2.407922439122 2.2975185663954 2.2941027526013 2.6300472452014 3.031816319136 2.3914097882217 2.3335718200226 2.3311832416002 2.3756596525831 2.7195339550724 2.4603863415149 2.161940443049 2.1586050058001 1.7073699350528 2.1227655778085 2.2003344721133 1.7316084475505 2.7714675121304 2.6361728085702 2.3329760293412 2.2618710368889 2.7052075619225 2.6107066819667 1.993855337141 1.3425450038938 2.2518018249378 2.3143060507915 2.1411579851295 2.8234425691312 2.0591707170031 2.0332336264314 2.5344048259874 2.7365094415734 2.4316624959027 2.3140911429682 2.4069571141823 2.3442733584988 2.1642723050715 2.4659692839424 2.1647185147757 2.3445486480089 2.4908859459009 3.2101365610619 2.1656647585014 2.0100432383271 1.9533581912954 2.1762434583871 2.1185564176896 1.9579993712238 2.1859639979695 2.2528570316762 2.2974285859789 2.0562508189741 1.988378995746 2.5013918651207 2.4248099026163 2.596537422583 2.2993950555082 1.8409991622579 2.3992165181103 1.7183396895319 1.6257523246821 1.8879312390904 2.3359259480553 2.7085232261177 1.9927908113561 2.7160015068934 2.1287063001426 2.161525870621 1.9943804490169 2.2708842873026 2.0018396188787 2.5114591998852 1.9164770470598 2.2648908074932 2.0749031700814 1.675137780058 2.1174303332391 2.1637213217669 2.2561610883464 2.2119410651077 2.2831645520533 2.0747441917411 2.3756596375379 2.7597238615136 2.0453588719283 2.2953455401466 2.2046842424061 2.1675477285653 2.3448719677379 2.1135555305784 2.1264692187384 2.6628512221748 2.4348812578307 2.1546956571686 2.8592318857839 1.5829822763881 2.0238965176915 2.6899843252497 2.1016867396594 2.3049131725061 1.3004833858414 2.0619280786575 2.7548615829613 2.1749512375625 1.8363679142153 1.9322703979417 2.2941079909056 2.1276055911418 1.8856998459616 2.1424176382807 1.9543591192389 2.0932388925203 1.9451004123961 2.3219368571051 2.0646687417236 1.9036180681312 2.11066835568 2.0834223149165 2.1403233719151 2.0200715751998 2.0530512639086 2.8997207008585 1.9891742819223 2.1416442836889 2.31877787814 2.1582489999036 2.0093892555372 2.2181716245814 1.7688342241071 1.9423655561643 1.8300450810674 1.9143743890172 2.0602606839668 2.7074123718419 2.3125915486619 1.9885443551142 1.7546462882715 2.3754074081174 2.0544975978321 1.357138047804 1.8249466924242 0.63926247115434 0.80703759517839 2.0036369129695 1.9608929815852 1.840062324124 1.4279635493653 2.1072040172406 0.91823318684798 2.5143514792544 2.6781110960131 1.952211395643 1.4664804540202 1.2617435997063 1.8497538440526 2.5095247286835 1.6553196061128 1.801171165416 1.847013119209 2.4373149671308 1.8227795121282 1.8817570157703 2.0102778230362 1.6947972879017 2.1457035769238 1.9279529668004 2.0800166408376 2.0244272272364 2.0698476098477 1.8712767766707 1.6247733156611 1.9964994902127 2.2727828201461 1.586403673895 2.4670462128521 2.6017439954111 2.4531542694921 1.891849980481 2.304739114596 1.6552204755285 1.5934261039567 1.7245586678714 1.6647115542536 1.8869083081982 2.1046088053904 2.1443532942924 2.8953387759665 1.7376479016065 1.7077195684736 1.5732538244009 1.6329314242826 2.3856982532659 1.9565296590294 1.7824451447383 1.9679609458763 1.7407233594108 1.4162648630592 1.4000148108652 1.9666700426756 1.5997620303636 1.5285822037123 1.5924079374244 1.8364233733107 2.2304069180391 1.2959968983077 1.8743914094815 1.1932638130715 1.4481874466862 1.6150253366167 1.9721718324014 1.7220194907346 2.2219463641861 2.0416301563058 2.0195791688505 2.1159714562057 1.7082610236605 1.8778071302633 1.8794360306098 1.7468067354165 1.8553044744518 1.9483553585184 1.5341747982737 2.0270342250568 1.778409235027 1.6794510384615 1.816181947299 1.8699838246235 1.8770505657793 1.206718365462 2.0095510551138 1.6862186627901 1.784805315059 1.5161027265816 1.8031768104457 1.5336321257611 1.4928752850279 1.6767833328976 1.7121027893577 1.5248965620332 1.724025157201 1.6209699796038 1.3809688558083 1.5080765621364 1.5660987336439 1.2344638066905 1.7109339174608 1.3295730356963 1.7407036760731 1.5658481527794 1.6043571812831 1.3208487593905 1.3981016362442 0.97361003796032 1.2435298280006 1.4318714837763 1.3248452098228 1.2333598628792 1.5273623271452 1.4310598434754 1.5943936809714 1.1491353958475 1.7596918276509 1.9250621673931 2.0678235449168 1.706105519961 1.4875125420485 1.5420413290397 1.6352151405533 1.4769315084745 1.3782441042512 1.8937241648929 1.0045883703021 1.5185382442158 1.611367101046 1.7963748885363 1.7068952786956 1.5944720718274 1.4897324459793 1.470959222123 1.2643713133965 1.1473206867385 1.3093866240306 1.4959835107208 1.3741686067199 1.5115907723528 1.177289131813 1.7972502583461 1.44683865587 1.7230981796372 1.7928382712661 1.3791909374044 1.3605820866647 1.6255309124226 1.6342446882406 1.3283688635094 1.4545355738552 1.3804735827037 1.5074286644032 1.3372942004983 0.8192988368868 1.2844393955416 1.5675063651286 1.3081553132775 1.0893945846729 1.5016829478057 1.3609703149093 1.2922634065721 1.1923346649189 1.4989436413372 1.1086286961448 1.2456560971496 1.2672626875703 1.2660657135044 1.08678142204 1.1986875812943 0.75384383559115 0.95010193439037 1.0852505934578 0.94759254971216 1.3018359732498 1.3734538053836 1.2725203649352 1.0354078324743 0.80387831747044 1.0959871697398 1.1337794153599 1.6334506705501 1.2776225186279 1.1415995292788 1.0255809665353 1.2092019102709 1.0525527017604 1.2701014961248 0.49811955707052 1.1534347236317 1.5232440579943 0.95805198859802 1.1413941546162 0.77100179811585 0.83652561669409 1.0606539766747 1.2814487823534 0.93636606528222 0.97672400783403 0.97611593770004 0.6810417330518 0.96402689753931 0.51337708130634 0.44018470657317 0.49746879035545 0.64704837301742 0.82682090130456 0.87968828632088 0.86598119278474 0.76507229505278 0.81353276411689 0.89372657176388 0.90282385227501 0.42764036673698 0.77441735772079 0.96598264465798 1.659613722405 1.679245988353 1.2092711443057 1.3872702095801 1.1278706107401 1.248612054297 1.2115917320525 0.70500674346168 0.81219954004992 0.66978795218047 0.68015838123796 0.69130968265216 0.80214178748753 1.0835669124757 0.70431480369838 0.64547185235033 0.77257207679703 0.8682916552159 0.57876750941236 0.55677688671121 0.80042376748659 1.4518985674836 0.81431538554955 1.4306168834352 1.194477595322 1.4878459411883 1.5480054342289 1.4289536050734 1.3889572238574 1.2007699967538 1.3123551711607 1.3105990656613 0.86610335045372 0.71827557728433 0.53660020377509 0.44232974346304 0.436322605292 0.91508249430578 1.1685655618238 1.1063420082963 1.3933163447104 0.82885575126064 0.92074688971419 1.0163143371423 1.3455478531651 1.0609640536692 1.2988721462103 1.1547946597753 0.97337170648808 0.83041205237512 0.74107335203342 0.56504722024548 0.80026834829873 0.4629979266709 1.0908433630979 1.1006511475093 1.4847658101437 1.1990170065609 1.3023930931834 1.2832781731524 1.5290430967877 1.0994909670523 1.0300436891175 0.66224578916038 0.9944703411554 0.9292897438353 0.99573768954945 0.97233490130681 1.1435977200967 0.53700948424146 0.65232451989248 0.72629287439013 0.58813393211937 0.8436282292452 0.50888912601078 0.60129688263442 0.87023975287314 0.95988887981613 1.0967817041367 0.71438569833232 1.2054908464155 0.79510649361054 1.3831706900847 1.041673111475 0.81003126222192 1.182220212514 0.98105596789195 1.129418918811 1.0746902234179 0.50797663450738 0.41497056060457 1.0779151651006 0.72753829559515 0.79223236818771 0.67671891826469 0.71701633681001 1.1690499631174 0.56117111734959 0.71130101955126 0.89403878796087 0.7686082721004 1.0275445156882 0.95183978558493 0.63861926236157 0.52975765129683 1.164459537117 1.0931999639556 1.236059853448 0.93190809848604 0.98494983992296 1.0791506936183 1.0036441465496 0.83040083334958 0.90173018273752 1.0131237096288 0.62622852814556 0.44483154336826 0.87716512138611 0.57074331269235 0.82754609892377 0.84016265904594 0.39242549496928 0.50813769767444 0.55668881325987 0.62990672387801 0.91400760692328 1.0182173129243 0.82561732183652 0.51470312236726 0.92596151074278 0.49995344487934 0.49209186057271 1.1021768052427 0.5886776876268 1.3968255027185 1.226119084764 0.78514985594681 0.83748074787091 0.56396002416221 1.1955000463295 0.68733555575591 0.62812879710519 1.6919340416116 1.3624905137736 0.66784714052902 0.81985513347395 0.75822572348188 0.55462066473125 0.51387878286965 0.56087508260796 0.46829484995728 0.61090546920538 0.46490171795529 0.52938953290193 0.58852190486311 0.78392787268114 0.65168239579576 0.58893730470429 0.46859740646509 0.71994937520267 0.5101041956312 1.6697201793653 1.3435841017688 1.1890817382118 1.0788122429521 0.52791791065541 0.58447670291559 0.66429549697768 0.50135622240382 0.48295916882965 0.63847571179244 1.0068117782856 0.78530279575727 0.74935843755539 0.629049946024 0.47147054588005 1.198540849538 0.88705783950079 0.62065841291242 0.48313492044044 0.66785646413719 0.5285955861294 0.55540030799654 0.4704806852998 0.49243479428065 0.63433566778204 0.78737837555125 1.1814665949026 0.70295776140899 0.65162824934177 0.74714616084104 0.84954567932784 0.77796947923722 0.47143232339506 0.70773587579972 0.8519750082496 0.91539123869909 0.95521961795917 1.0248279572493 0.9681105440916 0.86782903289671 0.80502736163662 0.92758785381117 0.68527011438235 0.72216958885665 0.65616762956591 0.90896810307782 0.511713073449 1.1641738598528 0.86342838558029 1.3130636618076 1.1717849971976 0.77853953658221 0.73616462869593 0.77479288340218 0.60689879974465 0.69791637163295 0.46604834467338 0.93531324978224 0.69656520559605 0.79686575757476 0.93003013863554 0.84270562509875 1.1766814231243 0.71915115423941 0.75986383799026 0.84413092576517 0.81784685263442 0.70228426218352 0.53037964480582 0.5978501189243 0.96062246791795 0.75607224944333 0.99637459576454 1.088068798716 1.0835602063883 1.4821628012298 0.47115625855339 0.6198688459438 0.95997995120506 1.1042910009105 1.5780863796697 1.446573528094 0.88180092331657 0.76336420046979 1.8051417987943 1.629523255904 1.3602352571067 1.50989446031 1.3201117298562 0.758964683612 1.5891283263187 1.3346552547722 1.1918274063281 1.2769775762645 1.131507601644 0.87572151774216 0.9526051367334 1.1134413950552 0.94271341527202 0.95047017490604 0.87428927829948 1.2498235681221 1.5130870764328 2.0360417057156 1.7319946465592 1.4814366190506 1.259162555087 1.1418110208506 0.7446745288697 1.2465596430349 1.0420198573903 1.3274940858144 1.0410952440175 1.0316555525819 0.8753157581241 1.1932139248363 0.83079417701311 0.79653496222273 1.1288260061938 1.9889013611445 1.857913331987 1.9812041351555 1.6068735062448 1.0855911222724 1.3259349845515 1.4600300521785 1.3923896194818 1.3379138409241 1.2938821770906 1.3032953013562 1.4368866729078 1.179099162766 0.97672874746719 1.8350950437943 1.6480011725105 0.72353988110527 0.42792952527781 0.58644955457681 0.49387751447116 1.2566008258678 1.4929039524153 0.54340258387144 0.46526205980