# vtk DataFile Version 3.0
d-2__ created by libgimli-v1.5.0-1-g5991b6ac
ASCII
DATASET UNSTRUCTURED_GRID
POINTS 257 double
19.5	-0.25	0
19.643267391024	-0.375	0
19.690940791558	-0.19094079155751	0
22.625	-0.27380702240065	0
22.625	-0.13804348840204	0
22.518663902413	-0.18940103023301	0
22.458333333333	-0.087886572211468	0
22.416666666667	0	0
22.375	-0.13804348840204	0
22.291666666667	-0.087886572211468	0
22.333333333333	0	0
22.25	0	0
20.083333333333	0	0
20.041666666667	-0.13804348840203	0
20.125	-0.087886572211466	0
20.166666666667	0	0
20	0	0
20.708333333333	-0.13804348840203	0
20.666666666667	0	0
20.625	-0.087886572211466	0
20.208333333333	-0.07357428207177	0
20.75	0	0
20.791666666667	-0.087886572211464	0
20.333333333333	0	0
20.25	0	0
20.291666666667	-0.087886572211468	0
21.166666666667	0	0
21.208333333333	-0.07357428207177	0
21.25	0	0
20.416666666667	0	0
20.375	-0.13804348840204	0
20.458333333333	-0.087886572211468	0
21.291666666667	-0.087886572211468	0
21.333333333333	0	0
21.625	-0.13804348840204	0
21.518663902413	-0.18940103023301	0
21.625	-0.27380702240065	0
20.583333333333	0	0
22.916666666667	0	0
22.833333333333	0	0
22.875	-0.13804348840204	0
20.833333333333	0	0
20.875	-0.07357428207177	0
23.98747163413	-0.5056358037932	0
24.050519698408	-0.25547676721966	0
23.843533331918	-0.29816134131379	0
23.458333333333	-0.087886572211464	0
23.404607252882	-0.15094638411797	0
23.541666666667	-0.13804348840203	0
20.5	0	0
21.791666666667	-0.087886572211468	0
21.833333333333	0	0
21.75	0	0
21.231336097587	-0.18940103023302	0
21.125	-0.13804348840204	0
19.705488373266	-0.59091608366499	0
20.007921013115	-0.8717186506847	0
19.91135296792	-0.47048281487414	0
24.166666666667	0	0
24.208333333333	-0.087886572211464	0
24.25	0	0
21	0	0
20.916666666667	0	0
20.958333333333	-0.13804348840203	0
24.791666666667	-0.087886572211468	0
24.833333333333	0	0
24.75	0	0
21.041666666667	-0.087886572211464	0
21.083333333333	0	0
24.083333333333	0	0
24.125	-0.07357428207177	0
22.541666666667	-0.073574282071767	0
21.375	-0.13804348840204	0
21.416666666667	0	0
21.5	0	0
21.458333333333	-0.087886572211468	0
22.583333333333	0	0
22.666666666667	0	0
22.226291378505	-0.21877391554365	0
22.432011579996	-0.40775209656411	0
24.148002764253	-0.18940103023303	0
24.208717134119	-0.38392172835888	0
24.291666666667	-0.13804348840203	0
22.208333333333	-0.07357428207177	0
22.166666666667	0	0
22.125	-0.072182208352023	0
21.875	-0.13804348840204	0
20.237940586216	-0.15094638411797	0
21.916666666667	0	0
21.708333333333	-0.07357428207177	0
22.083333333333	0	0
22	0	0
22.041666666667	-0.13804348840203	0
20.190375288162	-0.21877391554366	0
21.958333333333	-0.087886572211464	0
20.541666666667	-0.073574282071767	0
20.571273919549	-0.15094638411796	0
20.317063962986	-0.25702488420529	0
21.541666666667	-0.073574282071767	0
22.5	0	0
23.583333333333	0	0
23.625	-0.087886572211466	0
22.791666666667	-0.087886572211468	0
20.203594889612	-0.40391444725954	0
21.583333333333	0	0
21.666666666667	0	0
22.75	0	0
22.958333333333	-0.087886572211464	0
23	0	0
23.041666666667	-0.13804348840203	0
22.708333333333	-0.07357428207177	0
23.083333333333	0	0
23.125	-0.087886572211466	0
23.166666666667	0	0
23.208333333333	-0.13804348840203	0
23.25	0	0
22.165334880767	-0.15260258505374	0
23.291666666667	-0.087886572211464	0
21.731336097587	-0.18940103023302	0
23.5	0	0
23.416666666667	0	0
23.333333333333	0	0
23.375	-0.07357428207177	0
23.666666666667	0	0
22.086941669094	-0.2859797646022	0
21.958333333333	-0.18219221742147	0
23.125	-0.18219221742148	0
23.228873378537	-0.27753669533404	0
23.708333333333	-0.07357428207177	0
23.041666666667	-0.23876614697008	0
22.958333333333	-0.18219221742147	0
23.833333333333	0	0
23.875	-0.13804348840204	0
23.916666666667	0	0
23.791666666667	-0.087886572211468	0
23.75	0	0
23.958333333333	-0.087886572211464	0
24	0	0
23.483730629652	-0.25702488420531	0
24.333333333333	0	0
24.375	-0.087886572211466	0
23.369620976373	-0.40603607246707	0
23.604159114629	-0.34842263547806	0
25.124752694808	-0.11296503030675	0
25	0	0
24.958333333333	-0.087886572211468	0
24.041666666667	-0.13804348840203	0
24.416666666667	0	0
24.458333333333	-0.07357428207177	0
24.875	-0.13804348840204	0
24.583333333333	0	0
24.541666666667	-0.13804348840203	0
24.625	-0.087886572211466	0
24.5	0	0
24.43533056908	-0.18940103023302	0
24.916666666667	0	0
24.385963434616	-0.36114994877356	0
24.708333333333	-0.07357428207177	0
24.666666666667	0	0
23.636111778917	-0.20065391017952	0
24.999752694808	-0.25100851870879	0
22.731336097587	-0.18940103023302	0
20.851997235747	-0.18940103023303	0
24.737940586216	-0.15094638411797	0
20.523708621495	-0.21877391554365	0
21.133853031742	-0.25547676721968	0
20.949480301592	-0.25547676721966	0
21.041666666667	-0.52911283384145	0
21.041666666667	-0.18219221742147	0
23.357041954828	-0.21877391554366	0
23.737940586216	-0.15094638411797	0
24.690375288162	-0.21877391554366	0
23.958333333333	-0.18219221742147	0
19.875	-0.11303967622539	0
19.75	0	0
20.650397296319	-0.25702488420526	0
21.292050467453	-0.38392172835888	0
21.414390113348	-0.63321254312708	0
21.469144028345	-0.36097200963104	0
21.848127708251	-0.28948918465343	0
22.848127708251	-0.28948918465343	0
22.726596951268	-0.4234584073117	0
23.731548923005	-0.26700761442393	0
24.817063962986	-0.25702488420529	0
20.031958747178	-0.33325463579056	0
20.523689393121	-0.44776195923934	0
23.184065504659	-0.43422319923747	0
23.545209981036	-0.61464357222601	0
24.552290248164	-0.29580321144285	0
25.25	0	0
20.800529041383	-0.37028063139366	0
23.130694908432	-0.28024272799092	0
22.907115884997	-0.43487734236883	0
25.5	-0.5	0
25.5	-0.25	0
25.356886217184	-0.375	0
25.308843572405	-0.19115642759521	0
25.5	0	0
21.681768476189	-0.55823447719905	0
23.041897355025	-0.3545575021244	0
22.950100433703	-0.28398118611486	0
23.746371622197	-0.43057135368151	0
23.045779100149	-0.5143168838031	0
21.615347366628	-0.83560735755964	0
21.971649595913	-0.56775148091581	0
22.235269600634	-0.41546210057925	0
22.346412380513	-0.73751448832674	0
22.007726950717	-0.98664640296265	0
20.322202955504	-0.72835150504623	0
23.798122080496	-0.68908130839227	0
24.703430397599	-0.40445925111313	0
24.914859484231	-0.44990795630246	0
23.247599241801	-0.70334449364573	0
25.053928463665	-0.58159990549132	0
25.221377875989	-0.67457110982012	0
25.225195424337	-0.49586438948828	0
24.530720924191	-0.4852517756918	0
24.323984230706	-0.57992151527177	0
19.84485407481	-1.2957460393421	0
19.743909551686	-0.8528010586154	0
24.746070739038	-0.72060716412098	0
23.604860290622	-0.8788438191921	0
23.043947453281	-1.1807973577914	0
23.54268225478	-1.3246684327942	0
23.849430697053	-0.99522786547226	0
24.043693421774	-0.75311160759413	0
22.849047319116	-0.69970565535729	0
25.000856094841	-0.87446921301307	0
25.5	-1	0
19.845623228308	-0.30002188546398	0
24.512369350266	-0.71824350459	0
24	-1.6666666666667	0
24.051778272566	-1.3024535658708	0
19.5	0	0
21.680522574649	-1.2514855461386	0
21.375	-1.6666666666667	0
21.75	-1.6666666666667	0
25.174325422113	-0.32450830281231	0
19.5	-0.5	0
20.747329141204	-0.71351083399284	0
19.5	-0.75	0
20.348572023727	-1.2023161679924	0
21.179597305363	-1.0673000334922	0
23.25	-1.6666666666667	0
19.5	-1	0
24.75	-1.6666666666667	0
25.013091550828	-1.3141602648437	0
24.625304590967	-1.106556793762	0
24.375	-1.6666666666667	0
24.189043391347	-0.96114657873573	0
22.064690440023	-1.391571216678	0
22.426745644615	-1.201505510398	0
19.5	-1.6666666666667	0
21	-1.6666666666667	0
20.25	-1.6666666666667	0
22.5	-1.6666666666667	0
25.5	-1.6666666666667	0
CELLS 429 1716
3	0	1	2	
3	3	4	5	
3	6	7	8	
3	9	10	11	
3	12	13	14	
3	14	15	12	
3	16	13	12	
3	17	18	19	
3	20	15	14	
3	7	10	8	
3	21	17	22	
3	23	24	25	
3	26	27	28	
3	29	30	31	
3	23	30	29	
3	28	32	33	
3	34	35	36	
3	19	18	37	
3	38	39	40	
3	22	41	21	
3	41	22	42	
3	43	44	45	
3	18	17	21	
3	46	47	48	
3	31	49	29	
3	50	51	52	
3	53	27	54	
3	55	56	57	
3	58	59	60	
3	61	62	63	
3	64	65	66	
3	67	68	61	
3	67	61	63	
3	69	70	58	
3	4	71	5	
3	72	73	33	
3	5	6	8	
3	74	73	75	
3	73	72	75	
3	76	4	77	
3	78	79	8	
3	80	81	82	
3	83	84	85	
3	50	86	51	
3	25	87	30	
3	86	88	51	
3	52	89	50	
3	90	91	92	
3	93	87	14	
3	94	92	91	
3	95	49	31	
3	9	8	10	
3	84	83	11	
3	19	95	96	
3	91	88	94	
3	25	30	23	
3	9	11	83	
3	97	30	87	
3	98	74	75	
3	99	71	76	
3	100	48	101	
3	33	32	72	
3	99	7	6	
3	41	42	62	
3	102	40	39	
3	71	99	6	
3	97	93	103	
3	104	34	105	
3	39	106	102	
3	74	98	104	
3	38	107	108	
3	107	109	108	
3	35	75	72	
3	106	110	102	
3	34	98	35	
3	28	27	32	
3	111	112	113	
3	109	111	108	
3	59	82	60	
3	113	114	115	
3	116	9	83	
3	114	117	115	
3	50	89	118	
3	119	120	46	
3	119	48	100	
3	110	106	77	
3	120	121	122	
3	89	52	105	
3	101	123	100	
3	124	92	125	
3	54	26	68	
3	114	126	127	
3	101	128	123	
3	129	109	130	
3	131	132	133	
3	134	131	135	
3	48	119	46	
3	115	117	121	
3	136	137	133	
3	47	138	48	
3	60	82	139	
3	82	140	139	
3	141	142	138	
3	143	144	145	
3	122	47	46	
3	146	137	136	
3	113	112	114	
3	134	132	131	
3	147	140	148	
3	149	65	64	
3	150	151	152	
3	150	153	151	
3	148	154	151	
3	147	148	153	
3	65	149	155	
3	59	58	70	
3	155	145	144	
3	82	81	156	
3	145	155	149	
3	146	69	137	
3	157	158	152	
3	154	140	82	
3	147	139	140	
3	101	48	159	
3	149	160	145	
3	102	110	161	
3	150	152	158	
3	42	22	162	
3	157	163	64	
3	5	71	6	
3	4	76	71	
3	85	84	90	
3	116	83	85	
3	96	31	164	
3	49	95	37	
3	15	20	24	
3	25	20	87	
3	14	13	93	
3	25	24	20	
3	165	166	167	
3	63	168	67	
3	54	68	67	
3	17	162	22	
3	63	62	42	
3	35	98	75	
3	34	104	98	
3	26	54	27	
3	63	42	162	
3	88	86	94	
3	125	94	86	
3	105	34	89	
3	118	89	34	
3	77	4	110	
3	161	110	4	
3	111	109	112	
3	126	112	109	
3	47	117	169	
3	120	122	46	
3	38	40	107	
3	130	107	40	
3	121	117	122	
3	117	114	169	
3	80	70	146	
3	123	128	135	
3	134	128	170	
3	159	48	138	
3	134	135	128	
3	163	152	171	
3	158	157	66	
3	154	148	140	
3	151	153	148	
3	69	146	70	
3	172	44	146	
3	9	78	8	
3	161	40	102	
3	90	92	85	
3	116	78	9	
3	92	94	125	
3	5	79	3	
3	164	31	30	
3	19	37	95	
3	173	16	174	
3	164	175	96	
3	17	19	96	
3	53	165	176	
3	53	32	27	
3	118	86	50	
3	175	17	96	
3	176	177	178	
3	118	36	179	
3	78	116	124	
3	180	3	181	
3	169	114	127	
3	114	112	126	
3	134	170	132	
3	133	132	136	
3	44	80	146	
3	146	136	172	
3	82	59	80	
3	152	151	171	
3	64	66	157	
3	80	59	70	
3	64	163	149	
3	170	101	159	
3	136	132	172	
3	85	92	116	
3	124	116	92	
3	97	164	30	
3	166	168	63	
3	14	87	20	
3	87	93	97	
3	117	47	122	
3	47	169	138	
3	101	170	128	
3	142	182	159	
3	132	45	172	
3	149	163	183	
3	31	96	95	
3	162	166	63	
3	184	93	13	
3	97	185	164	
3	156	154	82	
3	141	127	186	
3	142	141	187	
3	44	172	45	
3	152	163	157	
3	163	171	183	
3	103	93	184	
3	53	72	32	
3	154	188	151	
3	189	144	143	
3	185	175	164	
3	175	190	162	
3	118	179	86	
3	125	179	124	
3	109	107	130	
3	126	129	191	
3	161	180	40	
3	127	126	191	
3	169	141	138	
3	141	169	127	
3	125	86	179	
3	180	181	192	
3	193	194	195	
3	196	194	197	
3	149	183	160	
3	143	145	160	
3	167	176	165	
3	162	17	175	
3	198	178	177	
3	72	53	176	
3	118	34	36	
3	185	97	103	
3	126	109	129	
3	186	191	199	
3	180	130	40	
3	130	180	200	
3	161	4	3	
3	129	199	191	
3	138	142	159	
3	45	182	201	
3	130	200	129	
3	192	202	199	
3	202	186	199	
3	129	200	199	
3	142	187	201	
3	191	186	127	
3	180	192	200	
3	199	200	192	
3	180	161	3	
3	142	201	182	
3	54	67	168	
3	203	204	198	
3	79	5	8	
3	78	124	205	
3	182	170	159	
3	151	188	171	
3	185	190	175	
3	204	206	205	
3	201	43	45	
3	43	81	44	
3	207	206	204	
3	57	56	208	
3	44	81	80	
3	209	201	187	
3	35	72	178	
3	57	208	103	
3	13	16	173	
3	183	210	211	
3	141	212	187	
3	45	170	182	
3	213	214	215	
3	205	79	78	
3	216	156	217	
3	45	132	170	
3	196	197	189	
3	218	56	219	
3	178	198	36	
3	188	156	216	
3	220	211	210	
3	57	103	184	
3	204	179	198	
3	165	53	54	
3	221	222	223	
3	209	224	225	
3	43	217	81	
3	226	212	202	
3	214	227	228	
3	211	160	183	
3	210	171	188	
3	226	192	181	
3	193	215	214	
3	3	79	181	
3	205	206	79	
3	186	212	141	
3	212	186	202	
3	173	229	13	
3	167	177	176	
3	72	176	178	
3	206	226	181	
3	213	227	214	
3	217	230	216	
3	196	195	194	
3	231	232	223	
3	227	213	220	
3	206	181	79	
3	187	212	221	
3	173	174	2	
3	13	229	184	
3	174	233	2	
3	234	235	236	
3	196	189	143	
3	233	0	2	
3	160	237	143	
3	237	195	196	
3	1	0	238	
3	173	2	229	
3	177	203	198	
3	198	179	36	
3	239	190	185	
3	35	178	36	
3	192	226	202	
3	195	215	193	
3	188	216	210	
3	220	210	216	
3	213	237	211	
3	154	156	188	
3	124	179	204	
3	221	212	222	
3	240	219	55	
3	54	168	165	
3	196	143	237	
3	195	237	215	
3	55	1	238	
3	167	166	190	
3	2	1	229	
3	1	55	57	
3	190	166	162	
3	204	205	124	
3	241	208	56	
3	242	167	239	
3	223	222	243	
3	156	81	217	
3	160	211	237	
3	213	215	237	
3	183	171	210	
3	228	193	214	
3	219	244	218	
3	56	55	219	
3	184	229	57	
3	57	229	1	
3	220	213	211	
3	245	246	247	
3	230	220	216	
3	220	247	227	
3	248	247	232	
3	228	227	246	
3	55	238	240	
3	249	230	217	
3	247	249	232	
3	166	165	168	
3	221	209	187	
3	43	225	217	
3	209	43	201	
3	247	246	227	
3	190	239	167	
3	207	204	203	
3	208	185	103	
3	242	203	177	
3	207	250	251	
3	240	244	219	
3	252	218	244	
3	224	209	221	
3	217	225	249	
3	43	209	225	
3	241	242	239	
3	167	242	177	
3	253	242	241	
3	56	218	241	
3	212	226	222	
3	249	225	224	
3	234	250	207	
3	239	185	208	
3	231	223	243	
3	224	232	249	
3	252	254	218	
3	241	218	254	
3	253	241	254	
3	239	208	241	
3	206	207	251	
3	224	221	223	
3	223	232	224	
3	248	245	247	
3	234	207	203	
3	250	255	251	
3	251	226	206	
3	255	243	222	
3	249	247	230	
3	220	230	247	
3	203	242	234	
3	235	242	253	
3	255	222	251	
3	226	251	222	
3	232	231	248	
3	245	256	246	
3	228	246	256	
3	242	235	234	
3	234	236	250	
3	255	250	236	
CELL_TYPES 429
5 5 5 5 5 5 5 5 5 5 5 5 5 5 5 5 5 5 5 5 5 5 5 5 5 5 5 5 5 5 5 5 5 5 5 5 5 5 5 5 5 5 5 5 5 5 5 5 5 5 5 5 5 5 5 5 5 5 5 5 5 5 5 5 5 5 5 5 5 5 5 5 5 5 5 5 5 5 5 5 5 5 5 5 5 5 5 5 5 5 5 5 5 5 5 5 5 5 5 5 5 5 5 5 5 5 5 5 5 5 5 5 5 5 5 5 5 5 5 5 5 5 5 5 5 5 5 5 5 5 5 5 5 5 5 5 5 5 5 5 5 5 5 5 5 5 5 5 5 5 5 5 5 5 5 5 5 5 5 5 5 5 5 5 5 5 5 5 5 5 5 5 5 5 5 5 5 5 5 5 5 5 5 5 5 5 5 5 5 5 5 5 5 5 5 5 5 5 5 5 5 5 5 5 5 5 5 5 5 5 5 5 5 5 5 5 5 5 5 5 5 5 5 5 5 5 5 5 5 5 5 5 5 5 5 5 5 5 5 5 5 5 5 5 5 5 5 5 5 5 5 5 5 5 5 5 5 5 5 5 5 5 5 5 5 5 5 5 5 5 5 5 5 5 5 5 5 5 5 5 5 5 5 5 5 5 5 5 5 5 5 5 5 5 5 5 5 5 5 5 5 5 5 5 5 5 5 5 5 5 5 5 5 5 5 5 5 5 5 5 5 5 5 5 5 5 5 5 5 5 5 5 5 5 5 5 5 5 5 5 5 5 5 5 5 5 5 5 5 5 5 5 5 5 5 5 5 5 5 5 5 5 5 5 5 5 5 5 5 5 5 5 5 5 5 5 5 5 5 5 5 5 5 5 5 5 5 5 5 5 5 5 5 5 5 5 5 5 5 5 5 5 5 5 5 5 5 5 5 5 5 5 5 5 5 5 5 5 5 5 5 5 5 5 5 5 5 5 5 
CELL_DATA 429
SCALARS Coverage double 1
LOOKUP_TABLE default
1.5980451439637 2.624652294743 3.0726933283902 3.2602611729668 2.4376627079 2.7056500098525 2.8448001861701 2.8214264917363 2.6070545254364 3.2213371836659 2.8833424583153 2.9332466276349 3.1115074655283 2.7778427128394 2.8056594178228 3.0504892147975 2.5629507522187 2.9658997431691 3.1670084314482 3.3974422707617 3.0389771845363 2.1790802052115 3.3346300542591 2.7757200381486 3.2014041649978 3.5657284952058 2.5605567356456 1.2495298703002 3.2744156425717 3.1911648241108 2.9347222486285 3.3938998728039 3.132948388202 3.1532857837047 2.8006234659518 3.083052847895 2.831303471387 3.3394166972469 3.0069819657921 3.1475489410767 2.5135684038112 2.5090153245509 2.935836221308 3.1127055841459 2.3990603016516 3.1160694759636 3.0873119753737 3.4656029336775 2.3384984469268 2.9600007636812 2.7499518161537 3.0148258664799 3.2114309880311 2.6135094724303 3.3170176407999 2.5502132278272 2.7928142723031 2.2599080485452 3.007926178993 3.417708768734 3.0251898824613 2.7901554089437 3.4042542810697 3.1114611492684 2.9438358232935 2.901708392818 1.9944155812489 3.091413648616 3.3121332354601 3.3412834894819 3.4127670015215 3.0802308042031 2.9320625394578 2.9029747391373 2.727796870629 2.6448908066608 3.1432118103321 3.2524205925557 2.945042302405 3.5196637495483 2.7297854393999 2.992990683097 2.9462969783478 3.3938922230134 3.3551038624519 3.388381091135 3.2530805672912 3.5735845201403 3.1951313064092 2.690683840902 2.9438255981129 2.6113989537341 3.1491033349582 2.6554702123523 3.1243692712634 3.4032306233145 2.9183604530848 3.5201378379374 3.4497579559059 2.6164096148068 3.438514975324 2.9481397879742 2.2867001171428 2.6402893122634 2.913986189494 3.0228171281455 3.0182983717099 3.0141194144451 2.7817055678071 2.5358875515965 2.7863272334274 3.1128116163638 2.5550867408256 3.0446347120258 2.5859940081115 3.0129738440258 3.0575366215092 2.3128131395654 2.387016267214 3.4435874776066 2.8075603429298 2.8114831917934 2.8971344716717 2.8012173194373 2.3887016999424 2.7822043021611 2.8889152840716 2.7544364748333 2.5959760251957 2.8141527607634 3.0209693411531 2.9574631386775 2.8487118821004 2.4779146960751 3.1766887943501 2.9642069561814 2.450175221057 2.2570912861593 2.6012927442947 2.2478600419498 2.7383095931808 2.9781124950288 2.6863629236459 2.8695380044468 2.8182556764166 2.9318162375094 2.7378845008221 2.6199415704221 2.9351155954009 2.7402066127385 3.1091030046309 2.8058610774587 3.0212660830168 2.8027280898812 2.9048234422784 2.7036620680726 2.7500983970497 3.1242319638751 3.0673029585202 2.8901227827492 3.1684501444597 2.8018972661391 2.7631565148943 3.4324370338372 2.8800010196799 2.5922837614198 3.1182909211466 2.6206729284061 3.0365457230798 2.596110625622 2.6044951324559 3.0319881555598 2.575471964239 2.7809413767956 2.7406742812422 2.9761466110839 2.6574672540779 2.9075613814853 2.4437933894278 2.4890541400234 2.8440460205521 2.6379399190336 2.3341915667261 2.6028454142348 2.3146020598811 2.5407698343691 2.830876843172 2.4377101177863 2.0771184562209 2.5103941461748 2.5638151179574 2.3707802466467 2.6254215492059 2.8189973402739 2.7964382911164 3.0411390860975 2.5194061807042 2.7971820424492 2.8250048742582 2.6547801061886 2.8526037653245 2.7192983545421 2.5243414077511 2.8396579408847 2.7469434094854 2.9318533398742 2.7897905711975 2.2883226947069 2.580518528898 2.501834032782 2.1704559044464 2.9442531712883 2.5613597958701 3.0706726267503 2.3933851922507 2.4850624898726 2.3142864753916 2.6258596852484 2.4707140453362 2.0320508004696 2.082903387985 2.5111939986007 2.2750411468974 2.1137151740106 2.4019460349774 2.8487029467958 2.371104049318 1.9117550553089 2.7320475149591 2.4131746248799 2.6951762190308 2.1524866467344 2.3164954091642 2.6500734237263 2.5092335006805 2.76006613305 2.4937729399794 2.5957312426901 2.4906176791078 2.4006350220033 2.4126303700384 2.5743407249187 2.2867758409929 1.4732808408214 1.6579660896758 2.2739046451495 2.3786002721788 2.1507982312038 2.4924397339268 2.0337279412831 2.4447413252699 2.6066490082708 1.9113211574853 2.5796644336623 2.3082757778591 2.6773503611123 2.511501306901 2.6328930860897 2.4025154684137 2.4018055083208 2.228798251435 2.531566742071 2.2097446931083 2.2042140672349 2.4212427559833 2.0686664135404 2.3561774130407 2.3794291815836 2.3157311213616 2.50785729817 2.2178190313434 2.7786104781044 1.8541467769968 2.6134276595404 2.3767471511176 2.5853286182614 2.488400004321 2.1118717932925 1.9728114000543 2.0891388686551 2.1273605711585 1.6913051969405 1.2745827484694 2.3517042316712 1.9104379861358 2.6743514744672 1.5336460281003 2.3468802326516 1.9578766909819 1.9871822656039 2.4364912099459 1.4767922118152 2.3346718121165 1.9073289594971 2.5229795263233 1.8440592957199 0.92445097798022 2.2349051288838 2.0469666489635 1.7544409445481 1.7145249437355 2.1587145738653 2.451051341531 1.2941867265058 1.6061491293731 1.9473339573234 1.9345803339297 1.1503637907491 2.0378286346256 2.1901901616906 2.0949382161426 1.4157501865419 2.3125969817409 2.0713195628094 2.1015471974309 2.0597842556355 2.0554994780979 1.9573775479465 2.3596975030881 1.9307130358494 1.3806232391104 1.7196974571725 1.6405308744389 0.91383971085694 1.4111195779796 2.0681213250149 1.7777138040378 2.0639964198613 1.962363806586 1.8605705651149 0.80443821611642 2.0859977406669 1.6726683308212 2.0909855043459 1.7526112123723 1.4288858929724 1.9366050988782 1.7791911941958 2.3176298921021 1.8480074545929 2.4350704702479 2.0594083008001 1.4696605561372 2.0025408435557 1.7754286828938 1.7273241584727 2.2412741707782 2.2788591759883 1.5776139716114 1.0288834305493 2.5958307208337 2.0094327195943 1.6664854628013 1.304697689595 2.1592063563796 1.7103061517964 1.4164512248238 2.328542508459 2.2015427651323 1.078559169369 1.5502601615626 1.0405889095094 2.0100441726425 1.9580918105269 1.6374709919646 2.1214690249825 1.185705743363 0.81952678984069 1.0516399401452 1.7220328947851 1.6079253475012 1.6202439123252 0.82383619619098 1.6287862566818 1.2758062034721 0.87794609675421 0.99876740105572 1.1389049876034 1.5446403963289 1.1253664513943 2.4454108989769 1.7525456931178 1.7831996124023 1.9366927486724 1.0298710682568 1.880822658249 1.6385055096611 1.6522818111149 1.5196631402543 1.1878425100884 0.89947592023677 0.6242122845621 1.5774923528336 1.5860808168694 1.7780502497882 1.1640814537164 1.6317546040396 0.86777465262552 0.86723101325558 1.6568127131093 1.4410853688104 1.1459126437849 1.5687839219643 0.85789188791871 1.2444798045592 0.56910167949235 0.7133155743379 0.65252853304819 1.230464073285 1.456405138273 1.3566896298384 1.1471584369163 0.7606658564834 1.3359236996935 0.99239388720759 1.5966844060473 0.93815887333563 1.3136212270107 1.3751632546197 1.2599128928911 0.81151079252629 1.0770596765859 1.4228934692137 0.74618280461475 0.64735704982475 0.7071922923949 0.96288985260738 0.92104281991238 0.83617322391997 
SCALARS Marker double 1
LOOKUP_TABLE default
0 1 2 3 4 5 6 7 8 9 10 11 12 13 14 15 16 17 18 19 20 21 22 23 24 25 26 27 28 29 30 31 32 33 34 35 36 37 38 39 40 41 42 43 44 45 46 47 48 49 50 51 52 53 54 55 56 57 58 59 60 61 62 63 64 65 66 67 68 69 70 71 72 73 74 75 76 77 78 79 80 81 82 83 84 85 86 87 88 89 90 91 92 93 94 95 96 97 98 99 100 101 102 103 104 105 106 107 108 109 110 111 112 113 114 115 116 117 118 119 120 121 122 123 124 125 126 127 128 129 130 131 132 133 134 135 136 137 138 139 140 141 142 143 144 145 146 147 148 149 150 151 152 153 154 155 156 157 158 159 160 161 162 163 164 165 166 167 168 169 170 171 172 173 174 175 176 177 178 179 180 181 182 183 184 185 186 187 188 189 190 191 192 193 194 195 196 197 198 199 200 201 202 203 204 205 206 207 208 209 210 211 212 213 214 215 216 217 218 219 220 221 222 223 224 225 226 227 228 229 230 231 232 233 234 235 236 237 238 239 240 241 242 243 244 245 246 247 248 249 250 251 252 253 254 255 256 257 258 259 260 261 262 263 264 265 266 267 268 269 270 271 272 273 274 275 276 277 278 279 280 281 282 283 284 285 286 287 288 289 290 291 292 293 294 295 296 297 298 299 300 301 302 303 304 305 306 307 308 309 310 311 312 313 314 315 316 317 318 319 320 321 322 323 324 325 326 327 328 329 330 331 332 333 334 335 336 337 338 339 340 341 342 343 344 345 346 347 348 349 350 351 352 353 354 355 356 357 358 359 360 361 362 363 364 365 366 367 368 369 370 371 372 373 374 375 376 377 378 379 380 381 382 383 384 385 386 387 388 389 390 391 392 393 394 395 396 397 398 399 400 401 402 403 404 405 406 407 408 409 410 411 412 413 414 415 416 417 418 419 420 421 422 423 424 425 426 427 428 
SCALARS Resistivity double 1
LOOKUP_TABLE default
98.392067475552 79.877370821289 103.56126175187 68.521932352536 70.794705545478 79.436936541516 71.961686197479 57.733175244921 71.336186517813 109.7127018909 71.353494575211 36.57016040594 38.294321969293 66.618145315472 54.380224106517 90.131283476747 90.389205898293 46.638560330367 121.90015627976 55.551467181494 51.181944598151 182.77949790121 71.270039735456 92.571243351044 77.110393852055 80.447807195981 47.996245795534 186.78288433842 41.773259804507 37.567422834569 49.905024333518 130.21681468911 86.212319795113 46.504722435039 78.31345345931 193.74678662064 96.630947838324 211.35942452841 184.59502367632 92.835219406208 99.023287482246 133.01384294586 77.611537267406 69.880215193574 48.161354499508 49.492235857163 86.858188108504 239.91947218624 57.415620665327 89.302319660382 57.479127091295 86.7048616688 63.973729537515 53.053821856498 39.237971756588 43.858571875988 58.333903851019 54.200905901196 104.52099710459 82.435884187091 108.20950973405 110.01700552751 93.51645784424 41.326078632083 92.734935917313 82.086134150133 66.862382127869 52.478441603359 77.957050259014 48.471610903129 137.98978919143 95.755620943176 123.85700420221 80.822708632777 78.669015343652 52.527303978984 72.159571160955 55.857094383429 101.45231359809 122.23915973211 60.137689149672 110.46725134986 91.212872253639 74.091920527915 102.40848379292 93.22142872487 80.404092815232 73.971973618718 126.16135199811 76.807601220559 66.004267230922 95.584158312291 129.17808647175 91.808430054042 40.34425004796 39.916987523996 84.422546223624 87.127621312426 43.955635458026 104.96647958198 245.79273760866 141.11798262449 128.22434869342 101.55138420211 90.423508754032 60.039350762184 89.712663155708 46.89471459177 70.668509450452 55.925604115996 233.64635311668 234.68752107978 79.399911276894 54.911773743136 53.605828916373 46.498251118235 76.936049518992 140.44506506054 69.332103878145 65.719178415635 239.04348079648 105.11083206563 99.990201484753 105.70131861249 87.678646588163 79.240505990175 292.24376934854 62.670360125657 114.60262491161 82.76681231845 82.625824886994 107.23020323652 70.514932487576 64.781652167191 40.313458540166 70.621554572679 50.70552972442 60.152181753758 49.683319863088 80.147126662478 81.497875854675 89.982684115689 73.524883154411 43.852745425289 100.33309394468 54.351066026404 45.951304892498 60.555730866828 47.154850788299 67.556242491313 68.814339044227 87.245947297661 88.42015679276 79.001528220137 63.441877667842 74.856231118168 112.39439998432 80.383269436268 129.67848670359 110.43688995868 87.394175172849 116.73750576567 73.59648019653 143.95034604125 89.663622952256 108.93074066539 85.704469272995 144.81240096149 223.23790996253 78.058074716509 86.735042844998 57.699816388781 106.8764050653 81.606649605001 84.841535017396 134.29511762191 65.394116685867 78.339852578336 93.005478379089 65.29600715218 44.198066883822 37.355187112664 70.638079546612 59.523128270173 64.207598814828 52.790034497902 87.107243783829 69.324653086454 100.07076292826 103.51777203288 72.252184131727 90.331280755269 110.94266023543 85.155106671136 78.091134033526 49.232606509226 106.50375723104 79.579175631927 99.358177257989 157.26531217226 113.59601367203 67.725295839475 84.024332173222 109.97056139529 76.545560912445 85.311188130561 73.745587503806 62.456936333466 77.841704763955 59.192465361619 57.916739633914 97.38354248959 114.35330848464 109.02769680464 132.7027702191 108.82346994991 95.9517180795 58.454784512616 75.344459033312 60.120928966122 72.951764146549 115.24629271572 105.92734208646 139.36249057395 134.86993895823 166.81446654643 116.11382416942 68.812128640828 71.512490676233 94.427991574791 123.45644519033 78.006858370228 85.720942896631 93.728679075267 85.778705323416 99.489368972692 88.233163814131 86.652537726416 92.818405302069 120.54558442167 114.25339919811 82.520289787538 96.877692711884 149.47860797586 138.95518916021 96.927966571318 102.2701177284 79.4526598397 77.577137867338 121.26808164993 67.166906073073 95.370194658578 81.01595274257 83.718276940364 93.434826316069 97.487104313259 94.461039726227 77.316752986975 90.277154013292 122.98704734477 159.76510023116 92.421344873559 97.716391539693 97.399103209757 91.446731477434 157.92515258524 96.457063771569 93.842637073249 92.931196764682 81.757624672323 152.28880501294 78.76853526782 181.17004961874 100.8702302413 93.027230592406 124.41423049892 117.4674245295 93.046121826119 165.64861367817 188.7715017555 185.81335015193 251.21073229887 183.67744585889 145.11722990935 181.70917222796 96.640816160154 124.27579119379 45.874963910223 118.59611380214 132.72091790016 131.89180689936 165.55572315351 110.15948449056 155.43232058975 109.17946487411 134.18479764762 286.17361527723 108.70422293431 127.52359716212 134.69133482737 88.254178519335 129.05236031844 56.815958022503 248.58742034834 221.12396626737 193.92789842889 124.08702368691 194.94224731138 110.70658229208 117.70452349905 115.61979485971 168.04311382399 103.34408568716 140.45926115593 111.70578967471 107.48844488586 54.365885323657 109.55524520783 80.082691228042 160.46256122822 178.17959098852 175.98287652016 142.91077079228 293.17924068841 174.16227863752 135.91528093605 165.32022664433 55.061564061732 61.960516878261 70.480892949776 481.99315876937 128.83555917408 85.638312068569 116.99077752668 139.90349763503 124.06393347528 63.705990240432 171.47634469748 113.79076043527 123.08574754928 96.57816123941 108.90768150833 155.44042569624 127.0958309677 142.04854467192 139.43516289991 107.6383417433 104.6660090021 192.35838115922 230.85322002025 67.425210435508 128.42734983538 148.75203015692 151.60295132739 95.104881404053 86.846384319406 143.97709826644 85.825101222135 114.73702761552 244.68677079908 194.72758934567 309.87511702993 165.22010190011 121.50527135544 150.98245379286 115.43656145578 183.18383382651 305.43913908323 233.97693517596 82.134931561953 101.65711119868 148.15063280097 250.51454627778 169.32685014372 198.05979190248 274.07236834337 222.29492888128 189.90479513625 204.94584569152 250.43478125068 73.935874846218 185.33351099113 214.35931773677 198.6903060379 225.10973819393 131.00941053764 264.43200340737 116.60515059846 224.72843915162 397.36978505487 268.92141197163 353.15002137031 215.66018140509 218.16232281438 214.42412184445 291.87141111428 173.7799301429 428.13661302676 309.82330321568 181.37745210133 231.22274462516 420.9172431294 152.47256727494 313.23539310368 250.95827286972 383.13350699575 384.8475768055 436.81754521568 232.42983096622 311.05670042462 243.8584958095 265.90350638962 267.65420516835 354.8040249285 420.96135957515 251.18584646708 357.95100794997 217.08033891348 194.83804462784 350.35824546685 469.49923719004 360.3727566652 267.73477538116 288.60610311403 250.44255220857 241.11224039096 455.38253578146 470.66153859487 467.97668094325 
SCALARS Resistivity_(log10) double 1
LOOKUP_TABLE default