# vtk DataFile Version 3.0
d-2__ created by libgimli-v1.5.0-1-g5991b6ac
ASCII
DATASET UNSTRUCTURED_GRID
POINTS 257 double
25.5	-0.25	0
25.643267391024	-0.375	0
25.690940791558	-0.19094079155751	0
28.625	-0.27380702240065	0
28.625	-0.13804348840204	0
28.518663902413	-0.18940103023301	0
28.458333333333	-0.087886572211468	0
28.416666666667	0	0
28.375	-0.13804348840204	0
28.291666666667	-0.087886572211468	0
28.333333333333	0	0
28.25	0	0
26.083333333333	0	0
26.041666666667	-0.13804348840203	0
26.125	-0.087886572211466	0
26.166666666667	0	0
26	0	0
26.708333333333	-0.13804348840203	0
26.666666666667	0	0
26.625	-0.087886572211466	0
26.208333333333	-0.07357428207177	0
26.75	0	0
26.791666666667	-0.087886572211464	0
26.333333333333	0	0
26.25	0	0
26.291666666667	-0.087886572211468	0
27.166666666667	0	0
27.208333333333	-0.07357428207177	0
27.25	0	0
26.416666666667	0	0
26.375	-0.13804348840204	0
26.458333333333	-0.087886572211468	0
27.291666666667	-0.087886572211468	0
27.333333333333	0	0
27.625	-0.13804348840204	0
27.518663902413	-0.18940103023301	0
27.625	-0.27380702240065	0
26.583333333333	0	0
28.916666666667	0	0
28.833333333333	0	0
28.875	-0.13804348840204	0
26.833333333333	0	0
26.875	-0.07357428207177	0
29.98747163413	-0.5056358037932	0
30.050519698408	-0.25547676721966	0
29.843533331918	-0.29816134131379	0
29.458333333333	-0.087886572211464	0
29.404607252882	-0.15094638411797	0
29.541666666667	-0.13804348840203	0
26.5	0	0
27.791666666667	-0.087886572211468	0
27.833333333333	0	0
27.75	0	0
27.231336097587	-0.18940103023302	0
27.125	-0.13804348840204	0
25.705488373266	-0.59091608366499	0
26.007921013115	-0.8717186506847	0
25.91135296792	-0.47048281487414	0
30.166666666667	0	0
30.208333333333	-0.087886572211464	0
30.25	0	0
27	0	0
26.916666666667	0	0
26.958333333333	-0.13804348840203	0
30.791666666667	-0.087886572211468	0
30.833333333333	0	0
30.75	0	0
27.041666666667	-0.087886572211464	0
27.083333333333	0	0
30.083333333333	0	0
30.125	-0.07357428207177	0
28.541666666667	-0.073574282071767	0
27.375	-0.13804348840204	0
27.416666666667	0	0
27.5	0	0
27.458333333333	-0.087886572211468	0
28.583333333333	0	0
28.666666666667	0	0
28.226291378505	-0.21877391554365	0
28.432011579996	-0.40775209656411	0
30.148002764253	-0.18940103023303	0
30.208717134119	-0.38392172835888	0
30.291666666667	-0.13804348840203	0
28.208333333333	-0.07357428207177	0
28.166666666667	0	0
28.125	-0.072182208352023	0
27.875	-0.13804348840204	0
26.237940586216	-0.15094638411797	0
27.916666666667	0	0
27.708333333333	-0.07357428207177	0
28.083333333333	0	0
28	0	0
28.041666666667	-0.13804348840203	0
26.190375288162	-0.21877391554366	0
27.958333333333	-0.087886572211464	0
26.541666666667	-0.073574282071767	0
26.571273919549	-0.15094638411796	0
26.317063962986	-0.25702488420529	0
27.541666666667	-0.073574282071767	0
28.5	0	0
29.583333333333	0	0
29.625	-0.087886572211466	0
28.791666666667	-0.087886572211468	0
26.203594889612	-0.40391444725954	0
27.583333333333	0	0
27.666666666667	0	0
28.75	0	0
28.958333333333	-0.087886572211464	0
29	0	0
29.041666666667	-0.13804348840203	0
28.708333333333	-0.07357428207177	0
29.083333333333	0	0
29.125	-0.087886572211466	0
29.166666666667	0	0
29.208333333333	-0.13804348840203	0
29.25	0	0
28.165334880767	-0.15260258505374	0
29.291666666667	-0.087886572211464	0
27.731336097587	-0.18940103023302	0
29.5	0	0
29.416666666667	0	0
29.333333333333	0	0
29.375	-0.07357428207177	0
29.666666666667	0	0
28.086941669094	-0.2859797646022	0
27.958333333333	-0.18219221742147	0
29.125	-0.18219221742148	0
29.228873378537	-0.27753669533404	0
29.708333333333	-0.07357428207177	0
29.041666666667	-0.23876614697008	0
28.958333333333	-0.18219221742147	0
29.833333333333	0	0
29.875	-0.13804348840204	0
29.916666666667	0	0
29.791666666667	-0.087886572211468	0
29.75	0	0
29.958333333333	-0.087886572211464	0
30	0	0
29.483730629652	-0.25702488420531	0
30.333333333333	0	0
30.375	-0.087886572211466	0
29.369620976373	-0.40603607246707	0
29.604159114629	-0.34842263547806	0
31.124752694808	-0.11296503030675	0
31	0	0
30.958333333333	-0.087886572211468	0
30.041666666667	-0.13804348840203	0
30.416666666667	0	0
30.458333333333	-0.07357428207177	0
30.875	-0.13804348840204	0
30.583333333333	0	0
30.541666666667	-0.13804348840203	0
30.625	-0.087886572211466	0
30.5	0	0
30.43533056908	-0.18940103023302	0
30.916666666667	0	0
30.385963434616	-0.36114994877356	0
30.708333333333	-0.07357428207177	0
30.666666666667	0	0
29.636111778917	-0.20065391017952	0
30.999752694808	-0.25100851870879	0
28.731336097587	-0.18940103023302	0
26.851997235747	-0.18940103023303	0
30.737940586216	-0.15094638411797	0
26.523708621495	-0.21877391554365	0
27.133853031742	-0.25547676721968	0
26.949480301592	-0.25547676721966	0
27.041666666667	-0.52911283384145	0
27.041666666667	-0.18219221742147	0
29.357041954828	-0.21877391554366	0
29.737940586216	-0.15094638411797	0
30.690375288162	-0.21877391554366	0
29.958333333333	-0.18219221742147	0
25.875	-0.11303967622539	0
25.75	0	0
26.650397296319	-0.25702488420526	0
27.292050467453	-0.38392172835888	0
27.414390113348	-0.63321254312708	0
27.469144028345	-0.36097200963104	0
27.848127708251	-0.28948918465343	0
28.848127708251	-0.28948918465343	0
28.726596951268	-0.4234584073117	0
29.731548923005	-0.26700761442393	0
30.817063962986	-0.25702488420529	0
26.031958747178	-0.33325463579056	0
26.523689393121	-0.44776195923934	0
29.184065504659	-0.43422319923747	0
29.545209981036	-0.61464357222601	0
30.552290248164	-0.29580321144285	0
31.25	0	0
26.800529041383	-0.37028063139366	0
29.130694908432	-0.28024272799092	0
28.907115884997	-0.43487734236883	0
31.5	-0.5	0
31.5	-0.25	0
31.356886217184	-0.375	0
31.308843572405	-0.19115642759521	0
31.5	0	0
27.681768476189	-0.55823447719905	0
29.041897355025	-0.3545575021244	0
28.950100433703	-0.28398118611486	0
29.746371622197	-0.43057135368151	0
29.045779100149	-0.5143168838031	0
27.615347366628	-0.83560735755964	0
27.971649595913	-0.56775148091581	0
28.235269600634	-0.41546210057925	0
28.346412380513	-0.73751448832674	0
28.007726950717	-0.98664640296265	0
26.322202955504	-0.72835150504623	0
29.798122080496	-0.68908130839227	0
30.703430397599	-0.40445925111313	0
30.914859484231	-0.44990795630246	0
29.247599241801	-0.70334449364573	0
31.053928463665	-0.58159990549132	0
31.221377875989	-0.67457110982012	0
31.225195424337	-0.49586438948828	0
30.530720924191	-0.4852517756918	0
30.323984230706	-0.57992151527177	0
25.84485407481	-1.2957460393421	0
25.743909551686	-0.8528010586154	0
30.746070739038	-0.72060716412098	0
29.604860290622	-0.8788438191921	0
29.043947453281	-1.1807973577914	0
29.54268225478	-1.3246684327942	0
29.849430697053	-0.99522786547226	0
30.043693421774	-0.75311160759413	0
28.849047319116	-0.69970565535729	0
31.000856094841	-0.87446921301307	0
31.5	-1	0
25.845623228308	-0.30002188546398	0
30.512369350266	-0.71824350459	0
30	-1.6666666666667	0
30.051778272566	-1.3024535658708	0
25.5	0	0
27.680522574649	-1.2514855461386	0
27.375	-1.6666666666667	0
27.75	-1.6666666666667	0
31.174325422113	-0.32450830281231	0
25.5	-0.5	0
26.747329141204	-0.71351083399284	0
25.5	-0.75	0
26.348572023727	-1.2023161679924	0
27.179597305363	-1.0673000334922	0
29.25	-1.6666666666667	0
25.5	-1	0
30.75	-1.6666666666667	0
31.013091550828	-1.3141602648437	0
30.625304590967	-1.106556793762	0
30.375	-1.6666666666667	0
30.189043391347	-0.96114657873573	0
28.064690440023	-1.391571216678	0
28.426745644615	-1.201505510398	0
25.5	-1.6666666666667	0
27	-1.6666666666667	0
26.25	-1.6666666666667	0
28.5	-1.6666666666667	0
31.5	-1.6666666666667	0
CELLS 429 1716
3	0	1	2	
3	3	4	5	
3	6	7	8	
3	9	10	11	
3	12	13	14	
3	14	15	12	
3	16	13	12	
3	17	18	19	
3	20	15	14	
3	7	10	8	
3	21	17	22	
3	23	24	25	
3	26	27	28	
3	29	30	31	
3	23	30	29	
3	28	32	33	
3	34	35	36	
3	19	18	37	
3	38	39	40	
3	22	41	21	
3	41	22	42	
3	43	44	45	
3	18	17	21	
3	46	47	48	
3	31	49	29	
3	50	51	52	
3	53	27	54	
3	55	56	57	
3	58	59	60	
3	61	62	63	
3	64	65	66	
3	67	68	61	
3	67	61	63	
3	69	70	58	
3	4	71	5	
3	72	73	33	
3	5	6	8	
3	74	73	75	
3	73	72	75	
3	76	4	77	
3	78	79	8	
3	80	81	82	
3	83	84	85	
3	50	86	51	
3	25	87	30	
3	86	88	51	
3	52	89	50	
3	90	91	92	
3	93	87	14	
3	94	92	91	
3	95	49	31	
3	9	8	10	
3	84	83	11	
3	19	95	96	
3	91	88	94	
3	25	30	23	
3	9	11	83	
3	97	30	87	
3	98	74	75	
3	99	71	76	
3	100	48	101	
3	33	32	72	
3	99	7	6	
3	41	42	62	
3	102	40	39	
3	71	99	6	
3	97	93	103	
3	104	34	105	
3	39	106	102	
3	74	98	104	
3	38	107	108	
3	107	109	108	
3	35	75	72	
3	106	110	102	
3	34	98	35	
3	28	27	32	
3	111	112	113	
3	109	111	108	
3	59	82	60	
3	113	114	115	
3	116	9	83	
3	114	117	115	
3	50	89	118	
3	119	120	46	
3	119	48	100	
3	110	106	77	
3	120	121	122	
3	89	52	105	
3	101	123	100	
3	124	92	125	
3	54	26	68	
3	114	126	127	
3	101	128	123	
3	129	109	130	
3	131	132	133	
3	134	131	135	
3	48	119	46	
3	115	117	121	
3	136	137	133	
3	47	138	48	
3	60	82	139	
3	82	140	139	
3	141	142	138	
3	143	144	145	
3	122	47	46	
3	146	137	136	
3	113	112	114	
3	134	132	131	
3	147	140	148	
3	149	65	64	
3	150	151	152	
3	150	153	151	
3	148	154	151	
3	147	148	153	
3	65	149	155	
3	59	58	70	
3	155	145	144	
3	82	81	156	
3	145	155	149	
3	146	69	137	
3	157	158	152	
3	154	140	82	
3	147	139	140	
3	101	48	159	
3	149	160	145	
3	102	110	161	
3	150	152	158	
3	42	22	162	
3	157	163	64	
3	5	71	6	
3	4	76	71	
3	85	84	90	
3	116	83	85	
3	96	31	164	
3	49	95	37	
3	15	20	24	
3	25	20	87	
3	14	13	93	
3	25	24	20	
3	165	166	167	
3	63	168	67	
3	54	68	67	
3	17	162	22	
3	63	62	42	
3	35	98	75	
3	34	104	98	
3	26	54	27	
3	63	42	162	
3	88	86	94	
3	125	94	86	
3	105	34	89	
3	118	89	34	
3	77	4	110	
3	161	110	4	
3	111	109	112	
3	126	112	109	
3	47	117	169	
3	120	122	46	
3	38	40	107	
3	130	107	40	
3	121	117	122	
3	117	114	169	
3	80	70	146	
3	123	128	135	
3	134	128	170	
3	159	48	138	
3	134	135	128	
3	163	152	171	
3	158	157	66	
3	154	148	140	
3	151	153	148	
3	69	146	70	
3	172	44	146	
3	9	78	8	
3	161	40	102	
3	90	92	85	
3	116	78	9	
3	92	94	125	
3	5	79	3	
3	164	31	30	
3	19	37	95	
3	173	16	174	
3	164	175	96	
3	17	19	96	
3	53	165	176	
3	53	32	27	
3	118	86	50	
3	175	17	96	
3	176	177	178	
3	118	36	179	
3	78	116	124	
3	180	3	181	
3	169	114	127	
3	114	112	126	
3	134	170	132	
3	133	132	136	
3	44	80	146	
3	146	136	172	
3	82	59	80	
3	152	151	171	
3	64	66	157	
3	80	59	70	
3	64	163	149	
3	170	101	159	
3	136	132	172	
3	85	92	116	
3	124	116	92	
3	97	164	30	
3	166	168	63	
3	14	87	20	
3	87	93	97	
3	117	47	122	
3	47	169	138	
3	101	170	128	
3	142	182	159	
3	132	45	172	
3	149	163	183	
3	31	96	95	
3	162	166	63	
3	184	93	13	
3	97	185	164	
3	156	154	82	
3	141	127	186	
3	142	141	187	
3	44	172	45	
3	152	163	157	
3	163	171	183	
3	103	93	184	
3	53	72	32	
3	154	188	151	
3	189	144	143	
3	185	175	164	
3	175	190	162	
3	118	179	86	
3	125	179	124	
3	109	107	130	
3	126	129	191	
3	161	180	40	
3	127	126	191	
3	169	141	138	
3	141	169	127	
3	125	86	179	
3	180	181	192	
3	193	194	195	
3	196	194	197	
3	149	183	160	
3	143	145	160	
3	167	176	165	
3	162	17	175	
3	198	178	177	
3	72	53	176	
3	118	34	36	
3	185	97	103	
3	126	109	129	
3	186	191	199	
3	180	130	40	
3	130	180	200	
3	161	4	3	
3	129	199	191	
3	138	142	159	
3	45	182	201	
3	130	200	129	
3	192	202	199	
3	202	186	199	
3	129	200	199	
3	142	187	201	
3	191	186	127	
3	180	192	200	
3	199	200	192	
3	180	161	3	
3	142	201	182	
3	54	67	168	
3	203	204	198	
3	79	5	8	
3	78	124	205	
3	182	170	159	
3	151	188	171	
3	185	190	175	
3	204	206	205	
3	201	43	45	
3	43	81	44	
3	207	206	204	
3	57	56	208	
3	44	81	80	
3	209	201	187	
3	35	72	178	
3	57	208	103	
3	13	16	173	
3	183	210	211	
3	141	212	187	
3	45	170	182	
3	213	214	215	
3	205	79	78	
3	216	156	217	
3	45	132	170	
3	196	197	189	
3	218	56	219	
3	178	198	36	
3	188	156	216	
3	220	211	210	
3	57	103	184	
3	204	179	198	
3	165	53	54	
3	221	222	223	
3	209	224	225	
3	43	217	81	
3	226	212	202	
3	214	227	228	
3	211	160	183	
3	210	171	188	
3	226	192	181	
3	193	215	214	
3	3	79	181	
3	205	206	79	
3	186	212	141	
3	212	186	202	
3	173	229	13	
3	167	177	176	
3	72	176	178	
3	206	226	181	
3	213	227	214	
3	217	230	216	
3	196	195	194	
3	231	232	223	
3	227	213	220	
3	206	181	79	
3	187	212	221	
3	173	174	2	
3	13	229	184	
3	174	233	2	
3	234	235	236	
3	196	189	143	
3	233	0	2	
3	160	237	143	
3	237	195	196	
3	1	0	238	
3	173	2	229	
3	177	203	198	
3	198	179	36	
3	239	190	185	
3	35	178	36	
3	192	226	202	
3	195	215	193	
3	188	216	210	
3	220	210	216	
3	213	237	211	
3	154	156	188	
3	124	179	204	
3	221	212	222	
3	240	219	55	
3	54	168	165	
3	196	143	237	
3	195	237	215	
3	55	1	238	
3	167	166	190	
3	2	1	229	
3	1	55	57	
3	190	166	162	
3	204	205	124	
3	241	208	56	
3	242	167	239	
3	223	222	243	
3	156	81	217	
3	160	211	237	
3	213	215	237	
3	183	171	210	
3	228	193	214	
3	219	244	218	
3	56	55	219	
3	184	229	57	
3	57	229	1	
3	220	213	211	
3	245	246	247	
3	230	220	216	
3	220	247	227	
3	248	247	232	
3	228	227	246	
3	55	238	240	
3	249	230	217	
3	247	249	232	
3	166	165	168	
3	221	209	187	
3	43	225	217	
3	209	43	201	
3	247	246	227	
3	190	239	167	
3	207	204	203	
3	208	185	103	
3	242	203	177	
3	207	250	251	
3	240	244	219	
3	252	218	244	
3	224	209	221	
3	217	225	249	
3	43	209	225	
3	241	242	239	
3	167	242	177	
3	253	242	241	
3	56	218	241	
3	212	226	222	
3	249	225	224	
3	234	250	207	
3	239	185	208	
3	231	223	243	
3	224	232	249	
3	252	254	218	
3	241	218	254	
3	253	241	254	
3	239	208	241	
3	206	207	251	
3	224	221	223	
3	223	232	224	
3	248	245	247	
3	234	207	203	
3	250	255	251	
3	251	226	206	
3	255	243	222	
3	249	247	230	
3	220	230	247	
3	203	242	234	
3	235	242	253	
3	255	222	251	
3	226	251	222	
3	232	231	248	
3	245	256	246	
3	228	246	256	
3	242	235	234	
3	234	236	250	
3	255	250	236	
CELL_TYPES 429
5 5 5 5 5 5 5 5 5 5 5 5 5 5 5 5 5 5 5 5 5 5 5 5 5 5 5 5 5 5 5 5 5 5 5 5 5 5 5 5 5 5 5 5 5 5 5 5 5 5 5 5 5 5 5 5 5 5 5 5 5 5 5 5 5 5 5 5 5 5 5 5 5 5 5 5 5 5 5 5 5 5 5 5 5 5 5 5 5 5 5 5 5 5 5 5 5 5 5 5 5 5 5 5 5 5 5 5 5 5 5 5 5 5 5 5 5 5 5 5 5 5 5 5 5 5 5 5 5 5 5 5 5 5 5 5 5 5 5 5 5 5 5 5 5 5 5 5 5 5 5 5 5 5 5 5 5 5 5 5 5 5 5 5 5 5 5 5 5 5 5 5 5 5 5 5 5 5 5 5 5 5 5 5 5 5 5 5 5 5 5 5 5 5 5 5 5 5 5 5 5 5 5 5 5 5 5 5 5 5 5 5 5 5 5 5 5 5 5 5 5 5 5 5 5 5 5 5 5 5 5 5 5 5 5 5 5 5 5 5 5 5 5 5 5 5 5 5 5 5 5 5 5 5 5 5 5 5 5 5 5 5 5 5 5 5 5 5 5 5 5 5 5 5 5 5 5 5 5 5 5 5 5 5 5 5 5 5 5 5 5 5 5 5 5 5 5 5 5 5 5 5 5 5 5 5 5 5 5 5 5 5 5 5 5 5 5 5 5 5 5 5 5 5 5 5 5 5 5 5 5 5 5 5 5 5 5 5 5 5 5 5 5 5 5 5 5 5 5 5 5 5 5 5 5 5 5 5 5 5 5 5 5 5 5 5 5 5 5 5 5 5 5 5 5 5 5 5 5 5 5 5 5 5 5 5 5 5 5 5 5 5 5 5 5 5 5 5 5 5 5 5 5 5 5 5 5 5 5 5 5 5 5 5 5 5 5 5 5 5 5 5 5 5 5 5 5 5 5 
CELL_DATA 429
SCALARS Coverage double 1
LOOKUP_TABLE default
1.6615347355646 2.5830096984537 3.0449002049454 3.3198985447855 2.5242048149014 2.8369116497324 2.9678212428786 2.8424029888653 2.7224233310806 3.1980097856296 2.8349821266755 3.1237383382598 3.3712841175974 2.8270447701053 2.9229675612868 3.4074381943629 2.5554515300554 2.9923636460192 3.1912737459835 3.3559316533142 3.0252121593999 2.1780067968074 3.3452768712277 2.6917854196509 3.2258846580415 3.4662199145462 2.6639521801928 1.3375068244371 3.3251153297777 3.3875046513278 2.7281932764236 3.4846293679293 2.9710387826059 3.1836210786074 2.7850700299794 3.0699263648997 2.8062848860553 3.0667355577318 2.8035984236323 3.2089237024934 2.4756445563392 2.4158302864229 3.0310217812261 3.0642146251624 2.5091548085732 3.1842801470739 3.1077553539516 3.4968958657191 2.4427334649611 2.9481613505382 2.7736626462104 3.0329273200417 3.3042050375807 2.6632914026351 3.4276975733926 2.6978126991774 2.8875258920892 2.3768669243636 2.7389981053159 3.3410102301684 2.9385832411757 3.0852550119078 3.3619535607026 3.1448208698026 3.1045319400934 2.9119719676164 2.0953920785388 3.1443242885795 3.533088301972 3.1313727265028 3.4439398322656 2.9893955136694 2.6717599903953 3.0851503200834 2.7434842693633 3.0537444735104 3.1930448870437 3.4529263056421 2.9239361823176 3.20451951416 2.8019642277892 3.2365511196293 2.9035493139467 3.1146772668594 3.04278459723 3.5702360412045 3.0726015906498 3.4716307812436 3.1511752736927 2.6676898898597 3.0189424812735 2.6322097272899 3.1367877976604 2.6757357321697 3.0494239415675 3.2934233403229 2.7685852146651 3.3714643129856 3.4993084892303 2.5698534100381 3.1650553641604 2.8982731823077 2.2708357530636 2.1586073858665 2.8664606209252 3.0188494821099 2.9296600714258 2.956603965663 3.0987930377991 2.4142186963723 2.797482724354 3.5057788790754 2.8130134343078 3.5600005213141 2.5397299077733 3.0834914195676 2.3368159356886 2.3167656686707 2.127653763525 3.378842768301 2.795815579562 2.7412162412199 3.1079202193515 2.7277134708952 2.1464459879619 2.9528827683076 2.8329722282875 2.7490626030701 2.4418059778146 2.7799202759475 3.0176825634126 3.0967739646737 2.9109528567106 2.514585476607 3.2421497304662 3.1201988335415 2.5680491318849 2.3398138557861 2.688439285524 2.2675965880668 2.7674411764216 2.9794768139448 2.6603019478011 2.9640522289198 2.6271379047515 2.8809606120658 2.9366055207826 2.7028998008629 3.040950912222 2.7922771373566 3.1027808569469 2.9271673627017 3.1995781422081 2.9217626170966 3.0692310719462 2.8337932231536 2.9378268360861 2.9574101711454 3.0438577579054 2.8072784474322 3.042629819687 2.836473922358 2.8041498045024 3.3367376678004 2.8130694101068 2.5664092297184 3.1206683155199 2.340906362882 3.0198694507442 2.8268244797757 3.0921554739237 3.0392747566345 2.6268134249387 2.7650204242106 2.8450517255923 3.0399928004134 2.6928066931055 2.8539068399484 2.4009921876002 2.555189861612 2.885443906831 2.7769670197731 2.3769526140746 2.6377919843366 2.3718713185412 2.8171649077306 2.8293467443275 2.4849880997999 2.0885661424297 2.5299504742872 2.5597059352949 2.3453475578255 2.7077192152452 2.7306975595125 2.7210726249761 3.054415157563 2.5895112810392 2.8246031736805 2.6774679082099 2.4762957772329 2.6607735375273 2.8844734696579 2.5047143347095 2.9173022015752 2.773479379242 2.9186528362705 2.717007085666 2.3643159798108 2.572284557996 2.5875920076015 2.2752818032233 3.0418898394251 2.6090999121096 3.1365637373656 2.4671165965093 2.5176975346862 2.3370326406709 2.6680711552795 2.5470357927924 2.1159971153821 2.1731045998972 2.4983324604754 2.2436777712 2.0534208173315 2.4511767804729 2.4558743644194 2.2107216965198 1.9740185078967 2.9040814148442 2.6360670554029 2.6877896525332 2.2017281245874 2.332465061317 2.6424586370557 2.5051246661608 2.8353600424905 2.5393785598909 2.6553205155114 2.5152745710708 2.4019757806263 2.4432496791667 2.6075225467398 2.2380028656549 1.3894698954723 1.6851790983843 2.099851645642 2.1852903328626 2.1933405662562 2.4952324407527 2.0053616021754 2.6337654494393 2.7172215582743 1.9987739617458 2.6575548786059 2.2811844847367 2.6007994033282 2.4932639871788 2.7180086151217 2.4028953147309 2.4005264297985 2.2441298981864 2.5276503201805 2.1416196768637 2.1322367029812 2.4045908172577 2.0249572298064 2.3375232240106 2.3103586647879 2.2758156183506 2.5445887338329 2.2398214687953 2.713582956505 1.8595587511466 2.5102017448225 2.3463722015242 2.7022663674306 2.262338952683 2.1366952937234 1.9744840379154 2.0780957888906 2.1256583889219 1.7321621184157 1.3658870869031 2.3630427925646 1.8210432636071 2.4556241385782 1.6243758671634 2.4483168879277 1.8918322126167 1.8986586067014 2.4932295416213 1.2285091085189 2.2779543346415 1.8842995343057 2.5023856113629 1.8968649534269 0.9829253058301 2.1774090909952 2.1402339008596 1.5747652975094 1.7748340813321 2.1076540986282 2.5117483086703 1.1939638616016 1.469375927228 1.9191507053582 1.8493122892155 0.88602160241173 1.975016948399 2.1083994742301 2.0349250926864 1.1559562045157 2.2428298064129 2.045825275159 2.0084358290212 1.9650899977315 2.1385647535545 1.9931574981106 2.3781442301667 1.8825693620958 1.0855316818591 1.5976048265153 1.5714246888744 0.7964865217851 1.1404908042839 2.0337062823659 1.6636874042534 2.1524693996003 2.032433136306 1.9305957836117 0.88132520991985 2.1262118141786 1.7299138073108 1.9833765504063 1.6588875591778 1.4851261687567 2.0176157048223 1.7956914731196 2.2722195612814 1.9008183795944 2.3930290191755 1.9837864812807 1.3019264188945 1.9132572176543 1.5979535862297 1.5332345777249 2.385140729476 2.2575486478844 1.4759963644076 1.103761670732 2.5327458693264 1.8972846091603 1.4490696990758 1.3729684389361 2.1777344786589 1.7763474538638 1.4858164456487 2.3612423923072 2.1715138578817 1.1654761136611 1.6081118686003 0.95857590123152 1.992110990526 1.8141673145905 1.3846639439065 2.0544460411104 0.97188491330779 0.87707042007691 1.1289080421035 1.7820170157149 1.6791684708534 1.3761690554628 0.65587866966856 1.3972796201536 1.0073449633346 0.72051519318746 0.77529370793124 1.2018248536631 1.3807396200519 0.96232547749925 2.4570971278349 1.6239826524533 1.674131062669 1.8556804635994 0.79300569411157 1.9102006801692 1.6799420446908 1.7450044239329 1.5707940707057 1.2436723656028 0.95909951956721 0.6595437704111 1.4372663742552 1.4501714084894 1.6718205496737 1.2459099198538 1.6887754700257 0.935074573322 0.94302585153719 1.5931034457762 1.30367597008 1.2170820797041 1.6444939636966 0.77411900684891 1.1040659059816 0.60618373465711 0.76188841130868 0.73571685369667 1.3238363073496 1.4948470434079 1.2264094713418 1.0237619290423 0.59045797865892 1.4026991090333 1.0291772798331 1.6057794453689 0.90434207253838 1.1230988378161 1.1219455566353 1.3358098060921 0.88136206911408 1.0807755621567 1.4099904605474 0.6190425664219 0.52714843173071 0.56866884568918 1.0483574413531 0.99160023923369 0.89862653518243 
SCALARS Marker double 1
LOOKUP_TABLE default
0 1 2 3 4 5 6 7 8 9 10 11 12 13 14 15 16 17 18 19 20 21 22 23 24 25 26 27 28 29 30 31 32 33 34 35 36 37 38 39 40 41 42 43 44 45 46 47 48 49 50 51 52 53 54 55 56 57 58 59 60 61 62 63 64 65 66 67 68 69 70 71 72 73 74 75 76 77 78 79 80 81 82 83 84 85 86 87 88 89 90 91 92 93 94 95 96 97 98 99 100 101 102 103 104 105 106 107 108 109 110 111 112 113 114 115 116 117 118 119 120 121 122 123 124 125 126 127 128 129 130 131 132 133 134 135 136 137 138 139 140 141 142 143 144 145 146 147 148 149 150 151 152 153 154 155 156 157 158 159 160 161 162 163 164 165 166 167 168 169 170 171 172 173 174 175 176 177 178 179 180 181 182 183 184 185 186 187 188 189 190 191 192 193 194 195 196 197 198 199 200 201 202 203 204 205 206 207 208 209 210 211 212 213 214 215 216 217 218 219 220 221 222 223 224 225 226 227 228 229 230 231 232 233 234 235 236 237 238 239 240 241 242 243 244 245 246 247 248 249 250 251 252 253 254 255 256 257 258 259 260 261 262 263 264 265 266 267 268 269 270 271 272 273 274 275 276 277 278 279 280 281 282 283 284 285 286 287 288 289 290 291 292 293 294 295 296 297 298 299 300 301 302 303 304 305 306 307 308 309 310 311 312 313 314 315 316 317 318 319 320 321 322 323 324 325 326 327 328 329 330 331 332 333 334 335 336 337 338 339 340 341 342 343 344 345 346 347 348 349 350 351 352 353 354 355 356 357 358 359 360 361 362 363 364 365 366 367 368 369 370 371 372 373 374 375 376 377 378 379 380 381 382 383 384 385 386 387 388 389 390 391 392 393 394 395 396 397 398 399 400 401 402 403 404 405 406 407 408 409 410 411 412 413 414 415 416 417 418 419 420 421 422 423 424 425 426 427 428 
SCALARS Resistivity double 1
LOOKUP_TABLE default
157.02568213101 99.017697899 81.817047712284 65.560458344838 147.39168909037 176.9370119856 140.92127815083 74.893811790211 167.71971932109 89.350857236656 87.176788083142 94.829435937142 35.533427041286 127.42159651306 121.1283697132 210.78652451752 71.259101176468 62.172431200386 68.922939361837 70.057398750925 73.946784477745 166.00177872346 93.647912579654 89.587350572271 134.87321732098 51.212266558626 69.234189249545 254.27818109576 68.907203523681 82.834869240099 124.05721428821 62.800517120455 81.805736727927 68.629793776814 74.026631312016 124.66110650471 78.388874981378 46.674121303483 66.297867884599 84.478717008172 97.147111550959 100.69961702235 69.924297287486 57.084823580937 109.49754929068 47.781901738986 89.343628476864 145.50379694774 120.58588397807 75.503908790578 88.221592893611 77.655038674883 61.07184997166 71.74965858482 43.134194190286 105.36796170687 57.51314738208 106.76098629263 46.044552054669 54.039429790802 103.13460572869 158.38093449216 77.226085308528 71.133250475528 80.467670469657 60.494402796823 110.71372685511 112.14711401428 82.22421919501 60.543559415919 63.844077779675 71.332603532773 57.40494747227 101.12667095775 59.745884064461 97.481836026904 59.929453562816 73.692999906885 56.685879029116 53.183076026464 61.535937426995 147.72609441021 85.802648115512 116.13315601843 66.457164877051 113.03449156477 226.41926656712 136.84255927301 168.11190877821 83.001798969105 38.661693296491 99.137606866889 182.8762733083 98.311662226478 34.618983250524 27.451173168966 76.450000151362 287.19268746456 59.400411245967 86.798599506652 40.428715615653 53.670575266377 111.50090052493 14.524300529199 131.46667700379 67.036416057225 59.524077761561 34.403333488967 86.654638660036 91.784396897394 36.929482852574 67.404941039585 106.89439440273 113.56683083839 105.36662468204 69.48170076026 31.817455222665 115.64782840195 43.062154744431 63.084787608607 11.673917551543 74.609152157344 62.616888077605 102.18307020415 23.268735976847 104.95786080831 16.522576904142 86.640097203731 32.466871155544 67.046261168323 66.977195186153 87.297199884127 66.548537192669 96.249684985377 56.363431525018 173.70885344431 121.7942793264 121.02850296101 125.956664487 95.800591791174 81.846276288322 53.772378003174 91.468282039323 81.214935823018 49.304105421352 72.663714938853 41.204090572497 90.001188619935 51.899495424368 71.929028705284 116.08779392408 92.500900372873 104.26534424668 110.3229997121 70.21498681605 80.494995211597 133.17607952969 156.07468668314 68.943325895502 83.37390728905 238.94148180208 130.66173825488 78.324723604789 192.0598496346 91.477201733414 91.970273131947 86.973959334417 27.344525696427 7.5657321639441 91.263940803584 119.38322560517 68.971501203828 97.033536378791 79.920144537822 98.869984563367 98.92313003211 71.336116274685 77.002744144093 113.91119889513 111.81560694589 59.735147170514 64.619469280895 94.532720092563 76.567657321975 93.377533757591 93.54466710668 77.62177758053 86.898922233617 117.44224328404 95.24054379463 83.384002226728 157.66698228058 113.6669545642 77.080288512207 65.661446177767 50.652722932376 99.01072037545 77.362833458618 72.414895977243 38.762183785036 36.555329029558 72.273426052845 43.345697388162 123.62492932228 70.172018922111 76.535818601515 78.182641565218 106.50871635272 88.997933505626 136.65550509685 110.61635738344 167.49973669011 103.13636142517 138.45042934244 123.43752567073 90.613148168589 26.259747722996 84.858612236997 94.195578086137 108.08265280597 106.17335156156 90.410043054639 131.51434241193 142.88724506358 115.76288437506 21.93374023909 26.046739433767 113.59784237791 117.69466838132 81.659804138432 8.264536642886 101.62447035763 99.513794599363 88.996429506064 98.506018234597 82.917638904342 112.67431148991 112.81349460269 112.87768259377 104.89017340788 113.34182071463 87.87708122012 174.8318878952 72.581100590323 45.097245471487 21.574650706046 16.831992477612 103.43214658367 92.625102116687 134.04327049129 98.259828841082 83.624266575179 116.33846964563 96.424971109701 141.96504494373 105.34979697549 124.73838929188 115.1690998098 129.96031651031 104.58799102227 151.6885745593 118.66765849289 178.39752539303 168.80323256196 134.96010012779 165.77154621649 128.07789372983 152.26876816758 156.28320941219 131.12414108752 146.34371886042 71.091768141554 173.42826358239 94.042363417023 109.21555839717 124.93749463204 52.586347409583 108.41938817227 155.53838733915 188.7455661626 178.30503281428 194.6216557347 235.76008397024 123.99193950354 223.4699848448 71.10339938097 166.21378018279 83.408895815256 34.576608361881 175.22360553633 121.21412921518 122.08706510404 118.11839857853 151.86475446627 89.265667139262 31.891484010067 366.70567541034 110.7942224811 96.778348751432 65.651798898044 133.50929265259 140.97477133805 80.707832294748 408.3716524023 370.84615318221 224.31123764369 226.84575527762 226.16829552181 26.314466285215 44.532429313285 205.24869772067 126.78389377567 152.04569345317 148.21253001772 160.94766336305 184.6943441164 93.72299206959 128.81622637709 90.174720810049 218.74087126625 167.31646206634 209.81137048344 55.881805575239 555.88640271671 162.04123922275 175.47024913278 245.05584952006 92.657252225593 105.01896153114 117.22717883979 328.54587019598 19.726580944589 140.1181426975 24.197324233738 49.838617856791 191.3043575964 106.15193717592 170.9299792534 116.81397407907 133.06431701671 80.981209454731 206.77303113125 88.655949741893 71.716134202996 93.734000730315 62.714492526558 88.341447524241 124.57747547744 312.24699502729 316.56071506444 79.656200233701 28.868091598429 72.422079041386 224.40026041549 106.12080260172 139.27081739435 210.6734358963 99.706854246816 130.23447533995 287.77876679319 189.81540501963 457.87165452869 164.03985264038 32.967025477336 83.036268640228 30.929656383074 179.4361112718 396.37813956963 313.39234235219 129.80717039632 157.34305843351 88.214284153434 486.91052313609 177.30264416156 263.25285478565 580.52310630485 351.03098858564 271.51147864488 323.49335921751 500.71817963429 87.969107727334 271.06505009807 317.35653041566 245.1873349956 371.37138338146 135.41560831504 205.60818345465 147.49744273344 203.68818901613 277.91048926403 359.86693008039 445.58562837943 355.5314741286 367.99836980973 316.62676973363 278.29760055639 174.74652519686 386.88189680319 372.30102813924 285.94727992722 419.12445431359 281.24488715125 169.58814487531 526.26867134767 491.24513927199 463.32156492109 440.02723582853 445.96445744961 247.40758881445 238.49323512657 429.46407648217 506.8136892067 562.61755284646 251.00581338491 316.56959962343 255.10170190743 415.260137478 372.11349760818 268.4475950255 264.70348435959 375.3437672018 349.97922143944 303.39429057499 586.82077779205 493.05154524351 446.44945594257 331.76905822271 312.55552497028 319.58168821234 
SCALARS Resistivity_(log10) double 1
LOOKUP_TABLE default