# vtk DataFile Version 3.0
d-2__ created by libgimli-v1.5.0-1-g5991b6ac
ASCII
DATASET UNSTRUCTURED_GRID
POINTS 803 double
8.3333333333333	0	0
8.5	-0.29429712828708	0
8.6666666666667	0	0
21.166666666667	-0.35154628884587	0
21.333333333333	0	0
21	0	0
-0.13949540192174	-0.65832226163824	0
0.26765699968102	-1.1941152153012	0
0.50098922076846	-0.451860121227	0
11.833333333333	-0.28867513459481	0
11.666666666667	-0.84084908820295	0
12	-0.57735026571174	0
-1	0	0
-0.82347194173878	-1.6006755924119	0
21.666666666667	0	0
21.5	-0.55217395360815	0
1.1666666666667	-0.35154628884586	0
1.3333333333333	0	0
1	0	0
1.5	-0.55217395360814	0
23.61842901153	-0.60378553647188	0
24.166666666667	-0.55217395360814	0
23.833333333333	-0.35154628884586	0
1.6666666666667	0	0
8.1666666666667	-0.35154628884586	0
1.8333333333333	-0.35154628884586	0
2	0	0
4.8333333333333	-0.35154628884586	0
5.1666666666667	-0.55217395360814	0
5	0	0
2.6666666666667	0	0
2.3333333333333	0	0
2.5	-0.35154628884586	0
2.1666666666667	-0.29429712828708	0
8.4079889429861	-0.75760412093209	0
9.0144333430414	-1.1439190584088	0
8.8333333333333	-0.55217395360814	0
13	0	0
13.166666666667	-0.29429712828707	0
13.333333333333	0	0
3.1666666666667	-0.35154628884586	0
3.5	-0.55217395360814	0
3.3333333333333	0	0
16	0	0
16.166666666667	-0.29429712828708	0
16.333333333333	0	0
3.6666666666667	0	0
3.8333333333333	-0.29429712828707	0
4	0	0
4.3333333333333	0	0
4.1666666666667	-0.35154628884586	0
27	0	0
26.833333333333	-0.35154628884586	0
27.166666666667	-0.55217395360814	0
3	0	0
16.5	-0.35154628884586	0
16.666666666667	0	0
2.8333333333333	-0.55217395360814	0
13.5	-0.35154628884586	0
13.666666666667	0	0
4.5	-0.55217395360814	0
4.6666666666667	0	0
3.9253443903472	-0.75760412093208	0
29.833333333333	-0.29429712828707	0
30.166666666667	-0.35154628884587	0
30	0	0
35.905165514021	-0.87509566217462	0
36.166666666667	-0.35154628884586	0
35.661339523067	-0.61041034021497	0
5.5	-0.29429712828708	0
5.8333333333333	-0.35154628884586	0
5.6666666666667	0	0
5.3333333333333	0	0
27.333333333333	0	0
27.5	-0.35154628884586	0
35.833333333333	-0.29429712828708	0
6.1666666666667	-0.55217395360814	0
6.3333333333333	0	0
6	0	0
37	0	0
37.166666666667	-0.35154628884586	0
37.333333333333	0	0
10.741322276319	-0.75760412093209	0
11.175685896383	-1.113902458684	0
11.166666666667	-0.55217395360814	0
6.5	-0.35154628884586	0
30.795730030397	-1.0103532830333	0
31.229185900173	-0.87228466782526	0
31.000045632922	-0.57199295442671	0
31.666666666667	0	0
31.833333333333	-0.55217395360814	0
32	0	0
40	0	0
40.166666666667	-0.35154628884586	0
40.333333333333	0	0
6.8333333333333	-0.29429712828708	0
7.1666666666667	-0.28872883340808	0
7	0	0
7.2211097499487	-1.0538354750778	0
7.0053271435993	-0.61041034021496	0
6.7615011526461	-0.87509566217461	0
9.5	-0.29429712828707	0
9.3333333333333	0	0
9.1666666666667	-0.28872883340808	0
7.3333333333333	0	0
39.666666666667	0	0
39.833333333333	-0.29429712828708	0
13.674580112811	-1.7184248716052	0
14.353791495618	-2.0265268011931	0
13.958469529133	-1.3940906823913	0
7.6666666666667	0	0
7.8333333333333	-0.55217395360814	0
8	0	0
12.994672856401	-0.61041034021496	0
5.5920110570139	-0.75760412093209	0
5.8348685364776	-1.5356869134354	0
9.8333333333333	-0.35154628884586	0
9.5718321806872	-0.87509566217461	0
10.166666666667	-0.55217395360814	0
7.33337923226	-0.57364431858631	0
10.36828810089	-1.6552861219901	0
6.6666666666667	0	0
36.666666666667	0	0
36.833333333333	-0.29429712828708	0
37.5	-0.55217395360814	0
24.333333333333	0	0
24	0	0
12.503171480364	-0.86507900392268	0
12.328351644367	-1.416191408927	0
12.778890250051	-1.0538354750778	0
11.5	-0.28867513459481	0
19.666666666667	0	0
19.833333333333	-0.35154628884586	0
20	0	0
9.6666666666667	0	0
20.5	-0.28872883340808	0
20.666666666667	0	0
20.333333333333	0	0
20.905165514021	-0.87509566217461	0
10.5	-0.35154628884586	0
10.333333333333	0	0
9.3280061897341	-0.61041034021496	0
10.833333333333	-0.29429712828707	0
10.666666666667	0	0
22.833333333333	-0.55217395360814	0
22.5	-0.72876886968591	0
22.915493514149	-1.1101467813362	0
5.2020787936337	-1.0219070688786	0
18.833333333333	-0.29429712828707	0
18.925344390347	-0.75760412093207	0
19.166666666667	-0.35154628884587	0
22.666666666667	0	0
22.5	-0.35154628884586	0
13.833333333333	-0.55217395360814	0
14	0	0
16.833333333333	-0.55217395360814	0
0	0	0
14.166666666667	-0.35154628884586	0
14.333333333333	0	0
14.5	-0.55217395360814	0
14.833333333333	-0.35154628884586	0
14.666666666667	0	0
15	0	0
15.166666666667	-0.55217395360814	0
15.333333333333	0	0
2.0948344859795	-0.87509566217461	0
2.2850956781966	-0.60378553647187	0
12	0	0
11.666666666667	0	0
22.166666666667	-0.95506458788032	0
22.166666666667	-0.55217395360814	0
21.833333333333	-0.7287688696859	0
15.5	-0.35154628884586	0
15.666666666667	0	0
17	0	0
20.833333333333	-0.29429712828707	0
20.661339523067	-0.61041034021495	0
9	0	0
14.166666666667	-0.72876886968591	0
17.333333333333	0	0
17.166666666667	-0.35154628884586	0
18	0	0
17.666666666667	0	0
17.833333333333	-0.55217395360814	0
17.5	-0.29429712828708	0
16.258677723681	-0.75760412093209	0
12.833333333333	-0.28872883340808	0
18.166666666667	-0.35154628884586	0
18.333333333333	0	0
17.407988942986	-0.7576041209321	0
19	0	0
19.333333333333	0	0
18.666666666667	0	0
12.166666666667	-0.28867513459481	0
12.333333333333	0	0
15.833333333333	-0.55217395360814	0
20.166666666667	-0.55217395360814	0
19.5	-0.55217395360815	0
7.5	-0.28867513958836	0
23.5	-0.29429712828708	0
21.833333333333	-0.35154628884586	0
22	0	0
26.592011057014	-0.7576041209321	0
22.333333333333	0	0
23.934922518609	-1.0280995368212	0
25.166666666667	-0.35154628884587	0
25.5	-0.55217395360815	0
25.333333333333	0	0
23.166666666667	-0.35154628884586	0
23	0	0
26.666666666667	0	0
26.5	-0.29429712828708	0
23.666666666667	0	0
23.333333333333	0	0
26.166666666667	-0.55217395360814	0
26.333333333333	0	0
26	0	0
24.761501152646	-0.87509566217461	0
24.951762344863	-0.60378553647187	0
24.5	-0.35154628884586	0
33.5	-0.35154628884586	0
33.238498847354	-0.8750956621746	0
33.833333333333	-0.55217395360815	0
24.666666666667	0	0
28.166666666667	-0.35154628884587	0
28.5	-0.55217395360815	0
28.333333333333	0	0
25	0	0
24.833333333333	-0.29429712828707	0
27.761501152646	-0.87509566217461	0
27.951762344863	-0.60378553647187	0
29.333333333333	0	0
29	0	0
29.166666666667	-0.55217395360814	0
25.833333333333	-0.35154628884586	0
29.947484315848	-0.62869436758688	0
30.409983486194	-0.76921735210505	0
34.166666666667	-0.72876886968591	0
34.166666666667	-0.35154628884586	0
25.666666666667	0	0
35.445556916718	-1.0538354750779	0
35.333287434407	-0.57364431858632	0
29.666666666667	0	0
29.5	-0.28872883340808	0
26.834868536478	-1.5356869134355	0
30.833333333333	-0.28872883340808	0
30.671365010853	-0.57276869068256	0
27.666666666667	0	0
38.204670056311	-1.4270134762662	0
38.601589185276	-1.0280995368212	0
38.094834485979	-0.87509566217463	0
28	0	0
27.833333333333	-0.29429712828707	0
36.662074300781	-0.56642454030296	0
28.666666666667	0	0
31.746636025369	-1.1187108767801	0
28.833333333333	-0.35154628884586	0
33	0	0
33.166666666667	-0.29429712828707	0
33.333333333333	0	0
34.5	-0.55217395360814	0
34.731644951192	-0.92970615345739	0
35.666666666667	0	0
35.5	-0.28872883340809	0
30.333333333333	0	0
31	0	0
31.166666666667	-0.28867513958836	0
31.333333333333	0	0
38.285095678197	-0.60378553647188	0
37.833333333333	-0.35154628884586	0
30.666666666667	0	0
30.5	-0.29429712828708	0
36.5	-0.28872883340808	0
33.666666666667	0	0
36.41952417611	-0.77749898599357	0
38.5	-0.35154628884586	0
38.833333333333	-0.55217395360815	0
38.666666666667	0	0
29.657657699283	-0.83081436360664	0
40.168201869811	-1.5356869134355	0
40.5	-0.55217395360814	0
39.925344390347	-0.75760412093211	0
32.994672856401	-0.61041034021495	0
31.5	-0.35154628884586	0
43	0	0
42.666666666667	0	0
42.833333333333	-0.29429712828707	0
43.404176293252	-0.42323554094762	0
35.88498281448	-1.5034830799843	0
41.166666666667	-0.29429712828708	0
41.074655609653	-0.75760412093211	0
41.5	-0.55217395360814	0
41	0	0
41.333333333333	0	0
34.333333333333	0	0
32.166666666667	-0.35154628884586	0
32.333333333333	0	0
39.5	-0.55217395360814	0
39.333333333333	0	0
36.500673817427	-1.6307728168531	0
40.833333333333	-0.35154628884586	0
34.666666666667	0	0
35.333333333333	0	0
35.166666666667	-0.28867513958836	0
35	0	0
36.333333333333	0	0
36	0	0
12.333333329009	-0.57732068917697	0
37.666666666667	0	0
7.9035368819631	-1.2622568520387	0
28.737635378193	-1.2311528923644	0
29.212976838479	-1.0424777721347	0
28.833333333333	-0.7287688696859	0
12.66662076774	-0.57364431858631	0
38.166666666667	-0.29429712828707	0
38.333333333333	0	0
12.5	-0.28867513958836	0
39	0	0
39.166666666667	-0.35154628884586	0
20.347766676375	-1.1439190584087	0
19.833333333333	-0.7287688696859	0
40.666666666667	0	0
42.5	-0.35154628884586	0
10	0	0
18.5	-0.55217395360815	0
41.666666666667	0	0
23.428167819313	-0.87509566217462	0
42	0	0
42.166666666667	-0.29429712828707	0
42.333333333333	0	0
42.744785246826	-0.77776727251482	0
41.833333333333	-0.35154628884586	0
38	0	0
41.542494325991	-1.1832128457714	0
2.6015891852757	-1.0280995368212	0
13.258353909981	-1.6064355191183	0
4.8333333333333	-0.72876886968591	0
15.5	-0.7287688696859	0
15.8687454603	-1.0219070688786	0
16.501535203144	-1.5356869134354	0
14.833333333333	-0.72876886968591	0
12.666666666667	0	0
17.797921206366	-1.0219070688786	0
18.166666666667	-0.7287688696859	0
36.905165514021	-0.87509566217463	0
32.666666666667	0	0
32.5	-0.55217395360814	0
34.833333333333	-0.28867513459481	0
34.999999995676	-0.57732068917696	0
34	0	0
35.169838147031	-0.8650790039227	0
42.285095678197	-0.60378553647188	0
41.877780449001	-0.80261564071807	0
13.238498847354	-0.87509566217461	0
11.333333333333	0	0
11.697267761921	-1.4738194081615	0
12.166692603518	-0.86967323340335	0
3.1666666666667	-0.72876886968591	0
11	0	0
18.535412126967	-1.0219070688787	0
25.833333333333	-0.7287688696859	0
25.268255851942	-1.0280995368211	0
28.268255851942	-1.0280995368211	0
[...]
CELL_DATA 1424
SCALARS Coverage double 1
LOOKUP_TABLE default
2.8612289521658 3.1127786524724 2.0235098813193 2.5776400353794 1.7920934675256 2.9722251460163 2.8532788281935 2.322631471663 2.7238919577987 2.6130715223424 2.8114690023464 2.4180808104673 2.8618420512583 2.6542781233103 2.6932561722897 2.615617755795 2.4660384558483 3.242557200861 2.6224522306984 3.2378375091882 3.301363727498 3.2716487103912 2.92087253636 2.9823914415565 2.9441154160645 2.9637186031021 2.946478266764 2.8746624694466 2.5322379050338 2.9210286153884 2.9974938281182 2.6417877937567 2.7638216987391 2.9784050186739 2.8719881303477 2.7303461311911 2.9871431113236 3.3293571311556 2.4797109516393 2.7236263579554 2.6388133482092 3.0346210623111 3.1501420756692 3.287037480026 2.8276544649561 2.456288660025 2.8561261507421 3.2924589866635 3.3017110657961 2.1194201938502 2.9837425999271 3.0654777373119 2.6873221807752 2.3653941733896 2.8001309156801 2.6236878660463 2.5025657343375 2.4234273334116 2.8665366724058 2.9504555381059 3.3459813228067 2.8614900933171 3.1241456575601 2.3479088346853 2.5955466883642 3.0834791415721 2.9912995194842 2.8946734960851 2.6362658130884 2.7808768671889 2.9166915010728 2.7054276851407 2.818888141406 2.5698498004806 2.4069159819327 2.7132009691496 2.8094192463525 2.7246914325731 2.4627278201396 3.0176541682347 2.7365229929801 2.5913276156762 2.7426421497296 3.0719718707346 2.6012543101269 2.7565198077595 3.0058181252723 2.8753499134923 2.8289075946247 2.330246396691 2.758528005455 2.4266552028101 3.0648493665502 2.6148867764302 2.5040228427098 2.9371708788584 2.3546569965641 3.0254492896492 2.7143147641029 3.0334918638356 2.6138588721651 3.0705043180153 2.6496304019654 3.0049773670717 2.8086586763653 2.6786711324273 2.7846559005291 2.7552243137324 2.8250863386693 3.0230873884716 2.6070019665521 3.2509357426414 3.2891041466505 3.0626651244129 2.6040955254889 2.8511475371749 3.1692099210762 2.7646978443532 3.1508752693539 2.8660539985532 2.7323565082338 2.854615337443 2.928818095051 2.7773570186423 2.6925706263746 3.0669159159944 2.7092521955548 2.8150492604261 2.9134796718781 2.7938866967908 3.3336265954811 2.7184658415164 3.0366360517936 3.2793521982185 2.6176903532347 2.9157603166896 2.8638199096211 2.9390878462571 3.1951463225622 2.8946624648462 3.1723928501718 3.0981698347789 2.7086483780978 2.7095992489413 3.0793997262639 2.9359709749165 3.41327734478 2.9801788141763 2.7298136962984 3.1972108412939 2.8346837409747 2.7271573000822 2.9928997287659 3.2170014241933 2.7826803429909 3.1857190158712 2.5726810920803 3.0489909177158 2.9637482068099 2.8222523199625 2.5557243084487 2.804007273778 3.1009009082924 2.3197251063309 3.4097318719319 2.9863440034749 2.7473947722393 3.0725355969948 2.598671789009 2.8493196864488 3.2232160300724 3.1710482243639 2.9035619460156 3.2145028145886 2.6490572217081 2.907410820692 2.6448055397136 3.1908526466921 3.2213534423315 3.4142984484857 2.5950197753961 3.0981441569168 2.9695024442057 3.1017640310123 2.9752459210963 2.8818837299301 2.7074908656423 2.759447577688 2.714684439381 2.4143747635966 2.7696576420274 2.7321735704729 2.8665077187373 2.9419760708636 3.0896574883872 2.3189168384738 2.4292118544675 2.7808913805136 2.4782659130077 3.0050799793316 2.9303875480858 2.8455582707682 3.1908804044169 2.9190698609164 2.3077871324952 2.5114272266441 2.6331716653332 3.0600235105447 2.7166819601963 2.957695644656 3.212897255895 2.9641827754114 2.6513232325593 3.1354107339675 2.6402220733232 2.9675574899232 2.7828132799264 2.6778254575788 2.7583388061112 2.4412024413807 2.8628927642651 2.5682486481538 2.5314052674354 2.647190605582 2.4921347948743 2.8290521311748 2.8313214812355 3.0936732951155 2.881676054625 2.7393696520454 3.0597577311357 3.120424164653 2.5159435365848 2.8774531015364 2.5279782022765 2.8691997841984 2.7025393344565 3.2441860234132 2.9127007796575 2.9734592087857 2.8401795832747 2.694470094086 2.7236952028202 2.8669444473562 2.657323605498 2.9941857866096 2.8543476090293 2.1543171235892 2.7068057122612 2.7577670324299 2.9533075578216 2.5994309318095 2.6996015490376 2.6288125322497 2.7606557019441 3.0974350646244 2.6425481820645 2.9075264528546 2.3066891423867 2.4751971460649 3.1577543866079 2.3211347715434 2.6444885930644 2.7989086939645 2.5847506300417 2.8138664798508 2.5352421344086 2.6116406806615 2.7092598741669 2.2541322413589 2.552552177597 2.6525090192219 2.5445747940343 2.5314410472335 2.447052210548 2.6189794580775 2.7460740501788 2.7872072561814 2.6077868349749 2.6111561477395 2.781739539965 3.2425238469135 2.8875714762237 2.4953819143086 2.6409605539971 2.6151619445825 2.7302956319964 2.6694547633191 2.75664444715 2.8325949301338 2.6636908508561 2.7775480147371 2.7896156740983 3.4298187872911 2.8531421135908 2.8936822368346 2.7305228693579 2.7976405403177 2.8201464271724 3.4233103261521 2.8643318334463 3.0068594294459 2.7294168772135 2.5697494113044 2.9549261171549 2.7631367198948 2.8160188000025 3.4135508242713 2.9423533623543 2.9411597398729 2.9297649082513 3.371747774431 2.6724293482984 2.7910409545675 2.5915482676027 2.393419139026 2.8974880023862 2.600768617829 2.691567937159 3.1098619035836 2.7010987843198 3.0359729237384 2.8056051207512 3.0183781292031 2.3076398364113 2.4074538339008 2.5810379397533 2.5589117718529 2.6531936880695 2.7740972983466 2.5897913108467 2.4880488019323 2.6002112366662 2.817267268434 2.7729551777499 2.9077688386049 2.3611828237679 2.2573700064248 2.8625091442116 3.2922454310028 2.9769029767439 2.7931121211512 2.6343257519536 2.654858671485 2.6084581310605 2.7374145536861 2.647197789758 2.8520076798118 2.6735549783045 2.6561405229803 2.9087656473443 2.5613116356204 2.2889058555815 2.5926205289037 2.518474586897 2.3489177541998 2.6934385512131 2.7079967581297 2.41236000592 2.9454573654089 2.6209301379335 2.4755902226118 2.5350209072415 2.6284765514256 2.5419521609194 2.6215143172329 2.3862281701562 2.8456646728696 2.7448316287121 3.009522689864 2.6954635037774 2.6368588808373 2.687586926475 2.8777683221489 2.7648327531169 3.0254085316737 2.728314148257 2.9081239013919 2.8944046002117 2.6562871900569 2.7360660716925 3.036955192612 3.2281931303514 3.168149861323 2.5810969471413 2.7723602819236 2.8106623689654 2.8692533267667 2.5409894741865 2.7288973485675 2.9071859234976 2.7056493769252 2.6149187137581 2.8161947941249 2.6186940387672 3.4247234658548 2.4828550107584 2.5572234721631 2.3794474012217 2.6160136095648 2.3111648025455 2.4600884962303 2.3250233792896 2.3723989330725 2.5469383393077 2.3308964145227 2.3034158213213 2.8910823033659 2.4581705312614 2.5144628372365 2.6078148015218 2.6616247994867 2.5357029379787 2.6242543795693 2.4871570266101 2.7009316908262 2.6679310847306 2.2892574464708 2.5255640521001 2.5541070489873 2.390449870262 2.0222420344216 2.5248122392333 2.5752292932573 2.7549643807363 2.6135475347511 2.7643997859204 2.6311951207225 2.245668260697 2.7679531256228 2.5796995504026 2.7144785163949 2.5415350525119 2.8683408775696 2.5583653035028 2.8905564895461 2.5872891597839 2.2718947409347 2.2701413445432 2.6841559050195 2.6945663795303 2.7746000966849 2.5434824423361 2.4269495552269 2.2241931997638 2.8091080092797 2.6171258442232 2.8322574660266 2.6347542378525 2.6882513859194 2.4429089513105 2.4747142561081 1.9209997447682 2.5415298702576 2.4047974635849 2.0588114334929 2.2033576516158 2.4176666387598 2.4595898309796 2.4752090933801 2.536047646605 2.8979558936404 2.4654018465382 2.2342959090117 1.9647405155088 2.168752244483 2.6408194500874 2.3990522819847 2.4295200737737 2.1034388317215 2.6720915422879 1.8533873152389 2.726871662358 2.5086500655439 2.5284040280985 2.4817855165678 2.7547973213405 3.2937576579454 2.3940892610984 3.0842603606958 2.5066005456978 2.5196078795074 2.5662491808384 2.6031489098354 2.3755591457687 2.5948908821126 2.5034808233019 2.526960245592 2.2570532461233 2.6363105796326 2.4746863400445 2.6629625302218 2.1167867892294 3.0911206745163 2.5249300904358 2.4446079671115 2.3213577811839 2.4084314436198 2.5199013501605 2.62477049978 3.018970736747 1.7854487130551 2.6874366248409 2.6151839356501 2.3560617405613 2.4649920104871 2.0554493849156 2.1860794606205 2.5257084967258 2.2684723175337 1.8895432870296 2.4550151416692 2.3645555973582 2.8095053517432 2.1349538247316 2.3325967327705 2.3089672101158 2.3692963522126 2.0714554533096 2.1101390028443 2.4842499415657 2.6573546017651 2.5021094710013 2.4505217805969 2.2831566690832 2.3345591124061 2.0088343415983 2.4695904406669 2.2123170444083 2.2275653982669 2.4838069602788 2.3857878643396 2.5707547730319 2.3551567694583 2.1630805224921 2.5130543810887 1.8790271377909 2.1766496866484 2.4383477585057 1.6767401062022 2.2981485816189 2.282725784143 2.5192609491847 2.3451656201188 1.8519723340258 2.5476648860819 2.5042688058128 2.5978976983953 2.6024106846791 2.444033456908 2.3525352864634 2.4347398940131 2.4249402186522 2.4396493224905 2.1399774709381 2.0424154144719 2.6088403016536 2.5142432045846 2.3438285176929 2.4191034710174 2.3348290277765 2.6784710189698 2.3776309433825 2.2583267691648 2.2448588674487 2.2785796756013 2.3816144584318 2.5379514463472 2.9675374817848 2.612741632572 2.042180664477 2.4873207445955 2.8312001559064 2.0092550919802 2.403370627124 2.4045715488575 2.295668236272 2.293078480199 2.6330036798367 3.051818315407 2.3919632475111 2.3331227290957 2.3303959994608 2.3688502870948 2.7043978897452 2.4459409386062 2.1659263554053 2.1637157500708 1.7311812169654 2.1331421365489 2.2101965846103 1.7095020666488 2.7621418668203 2.6323401380274 2.3244220364114 2.2604700554482 2.6975763169892 2.6062407571966 2.0118526962262 1.3573545524941 2.2458987575412 2.3103018134447 2.1523196509248 2.831944580329 2.0645531569073 2.0481295587801 2.522780938359 2.7308798355135 2.4316825103777 2.3170791887884 2.4119364280281 2.3504129523568 2.1807472251408 2.4676622153333 2.1770751881044 2.3472086402032 2.4931852913539 3.2135689794506 2.176440384939 2.0270756032738 1.9629022775181 2.179496761879 2.1441147846526 1.9835292955174 2.1882869880415 2.2632738895624 2.2957145344705 2.0652203915306 1.9993739204251 2.4886727219684 2.4285088778199 2.5944313164486 2.2980494308991 1.8581567526948 2.4062513686178 1.7406116393586 1.6564855645845 1.9018471355153 2.3337965987411 2.7112014536057 2.0047965787705 2.7115902575397 2.1458818132851 2.1606936143916 2.0069720467647 2.269249424418 2.0179743942883 2.4976584562984 1.9375500056117 2.2792868947764 2.0746154455117 1.69921187843 2.1314066482245 2.1747869467983 2.2583319111378 2.2118894014552 2.2789103079932 2.0825722920163 2.3818253050747 2.7475580166777 2.0592171649523 2.2947449595998 2.2082568363672 2.1688651794374 2.3432761889902 2.1319954195288 2.1373331963649 2.6620410965261 2.4359414694986 2.1664476649411 2.8513451092846 1.5957175961928 2.0327250989135 2.6920983618832 2.115413483104 2.3056128141501 1.3039227669915 2.0684989799177 2.7452169351164 2.1870243121569 1.8387108066577 1.948453265266 2.3057716324112 2.1289929393467 1.8969366548715 2.1421047988798 1.9604656975829 2.0976782467723 1.94986161585 2.3279071115513 2.0847429316135 1.9044728474474 2.1022122893278 2.0927762747439 2.1405770757784 2.0300923684469 2.0687382570785 2.8978275843325 1.9882847074681 2.1613867446352 2.3270336815013 2.1650623718715 2.0184997312016 2.2115026755456 1.7938998485791 1.9601377402523 1.8472048107327 1.9343150889789 2.0690141647941 2.6965627908131 2.3213717105439 2.0156122907977 1.7863195480128 2.3795795016785 2.0546801528598 1.349188105901 1.8307475430343 0.67647905036011 0.83978688782917 2.0130444976649 1.9778348553814 1.856645168459 1.4636639564411 2.0978106560865 0.95973512153494 2.4963123876751 2.6786547592343 1.9692178614926 1.4973326643609 1.2914675398429 1.8802244906039 2.5028199087227 1.6672609178271 1.7905585546313 1.8748533291931 2.4434331569206 1.8455488171678 1.9015668531311 2.0261900319152 1.7190130519627 2.1661089988192 1.9438495436728 2.0936156368083 2.0278719871676 2.0629097901044 1.8745631848696 1.6239409274302 1.9998539129824 2.2669610756081 1.6162665081818 2.4681365094255 2.5915224326872 2.4416506374376 1.9142732601751 2.3111987732192 1.6731685113297 1.566570896434 1.7367938260228 1.6517901761142 1.8680480958669 2.1234341233286 2.163600947073 2.8791710533108 1.7522902894534 1.7356591730122 1.6047719661104 1.6633500815355 2.3938312689492 1.967903202204 1.8040191128532 1.9817495024875 1.7656057524156 1.4515177217149 1.4321057804531 1.9980818334335 1.6377157833745 1.560382997155 1.6217424021254 1.8670608071087 2.2453756879182 1.3312822219647 1.890116835983 1.1831077663707 1.4285302838967 1.6138816256285 1.9686894021811 1.7118032191072 2.2350489522351 2.0627648639591 2.0395008483259 2.1360731163064 1.7371851935898 1.9065162117915 1.9014905554531 1.7654677233708 1.8877544440017 1.9756355071248 1.5691704527905 2.0531284772528 1.80631215506 1.7158652529842 1.8468193837824 1.8994891768613 1.9079955333249 1.2459690844747 2.0363231444815 1.7249725162912 1.813402388845 1.5201596905644 1.8362766129705 1.5766388838693 1.5317335967744 1.7138653532738 1.7421025819095 1.5638047424729 1.7568421182867 1.6514377087702 1.4000605888887 1.5241100105559 1.6047203898051 1.2775816956697 1.7378320410161 1.3703799605338 1.778428436193 1.5964669759206 1.6429373521115 1.3476517475608 1.427218819064 0.9956155151318 1.2527968916317 1.4234159651801 1.3651996689792 1.273163995839 1.5635750065753 1.4675817300906 1.6248143610644 1.1896897684586 1.7864052589573 1.9422060323136 2.0793408350146 1.7332488814799 1.5215450725945 1.5737961995412 1.6648526311978 1.5104197221546 1.413295714738 1.9049443431242 1.0425138575129 1.5488641355822 1.5878042895521 1.8314477962305 1.7466794475023 1.6335756435026 1.5318701452716 1.5066383566464 1.3080554192994 1.1890597971555 1.3440890742397 1.5287503300376 1.4093092914486 1.5373353178786 1.2163203603297 1.8335433726808 1.4903197312326 1.7468733178681 1.8145874865888 1.4101993968569 1.3950781591263 1.6675699534641 1.6764523299917 1.371323489191 1.4934283567926 1.4176612287776 1.5396731582792 1.3428563575386 0.83524219213823 1.3219092706547 1.5992334410987 1.3439435786738 1.1298644660636 1.5352001006885 1.3960979734595 1.3375005360761 1.2376288654711 1.5422491475718 1.1356208682651 1.2851835671573 1.3044224103246 1.3102240389075 1.130374093032 1.2392054171644 0.79106070177476 0.99346454639177 1.122425676918 0.97728066678346 1.3426270251483 1.4101625975905 1.3103546834236 1.0765584762015 0.84191089577387 1.1305134787511 1.1637467036229 1.6590892519931 1.3162806317348 1.1809990923768 1.0619892841672 1.2458233155726 1.0928743694019 1.3078452849864 0.53422109624761 1.1918436928376 1.5532866478739 0.99874857587673 1.1850460555977 0.81336683736548 0.87252327547705 1.0924988098715 1.3148478071394 0.98095804930257 1.0185568230361 1.0200165752291 0.71172057025039 1.0069939280353 0.55226258538463 0.46692052087524 0.52803167940017 0.68642816243709 0.86745519461912 0.91115153148456 0.90470437886511 0.8055580373605 0.85258397558767 0.92819052629962 0.93023577631701 0.43116230035827 0.80368525601541 0.97394588583219 1.6583510082233 1.70450966123 1.248211533758 1.4313978902196 1.1725955000393 1.2881553201983 1.251925096647 0.7318525743724 0.83723713343355 0.68732020769058 0.70191470309614 0.72566279319412 0.82260156100831 1.1049086571877 0.74166959378497 0.66945336446703 0.79849117700074 0.88777783007787 0.59289302008722 0.56663300380001 0.80698916649588 1.4452065552849 0.85268820292324 1.423922980955 1.2343753264001 1.496173772304 1.5792414035328 1.4642954961709 1.4237949236709 1.2395115089626 1.3512273151489 1.3488802374309 0.90503640553629 0.75546953609343 0.57334367907651 0.46149712918401 0.44734684358735 0.94079704029122 1.1693441219838 1.1286172348328 1.4309653723406 0.87117694957527 0.95992146287748 1.056091254647 1.3838919299417 1.1015965242373 1.3384641845936 1.1961567617077 1.0139877517204 0.86963830418333 0.77462192195889 0.58692259682365 0.80348721977134 0.47019824873616 1.1303675237031 1.1398212660447 1.5226136915178 1.2393619459125 1.33931599603 1.320322511163 1.5599491815591 1.1393844642584 1.0711843406106 0.69925429399725 1.0353737053827 0.97183688679463 1.0369305626463 1.0118168149268 1.1786956846887 0.55431727433537 0.65432387392599 0.74281052957589 0.59515125453733 0.88210663230641 0.54439732448528 0.63835698333104 0.90930371550487 1.0010057037792 1.1392609819968 0.75536837031301 1.2477161140307 0.83744893124461 1.4258754622391 1.0815697696451 0.84807532040433 1.2138942499921 1.016001952403 1.1560610724724 1.1128756879701 0.5099430303728 0.4128446899665 1.0794976331557 0.73871121067412 0.83053471527549 0.71353642812149 0.75433917105146 1.2071056848216 0.59803293910911 0.75193397023935 0.93271251172719 0.8054239370843 1.0680796252354 0.99080056763239 0.67708443759311 0.56717482236231 1.2025492909188 1.1322920065907 1.2732881478577 0.97021538720027 1.0231777933275 1.1166086741106 1.0420037934545 0.8688910574245 0.94112546573902 1.0479467622504 0.66452102077473 0.44590799718067 0.91521532848144 0.60714272123471 0.86945216406686 0.88212625607924 0.39102463722581 0.50843418364513 0.55640529888168 0.63511014840264 0.95259858116175 1.0567705285914 0.86342707478793 0.55044577533016 0.96400575159003 0.53503813949744 0.52674243342682 1.1408248502195 0.62487549561391 1.4312461795114 1.2618781524964 0.82556033806877 0.87742267863823 0.60492830067799 1.2395603336436 0.72380800597949 0.66512439632854 1.7131299073105 1.3954668320646 0.70615041241052 0.85977062545899 0.79611382597016 0.59336794673661 0.5487410831145 0.59724883259768 0.50286888004323 0.6475977508298 0.49926492772822 0.56510233950612 0.62507624015604 0.82647457494587 0.691956009949 0.62504884912796 0.50358915806198 0.7571238718991 0.54552443619598 1.6935651913847 1.3775732004195 1.2255238512799 1.1166392581651 0.56562212668398 0.62029129422748 0.70238850616167 0.53691367518799 0.52240892662645 0.67886125324329 1.0500116870361 0.82284089269536 0.78699474797492 0.66561192567513 0.50547505211773 1.235443242994 0.92553840003744 0.65900830744763 0.52019665810769 0.70672365584489 0.56509063567411 0.59397833096471 0.50856518270981 0.53268542333299 0.67520792124262 0.82958787340157 1.2267788087204 0.74002556762869 0.68870195324332 0.78495821121659 0.88670245538323 0.81556182998186 0.50735279501151 0.74479960864276 0.88916885311233 0.95377532984875 0.99335695025696 1.0629641531657 1.0063227565255 0.90620011565331 0.84311024516218 0.9669022097317 0.7233189085751 0.76020770037418 0.69321467915898 0.94759838231256 0.54820245517718 1.2040345001852 0.90282543290867 1.3482320003 1.2094682086228 0.81870505390547 0.77444364854906 0.81345555154036 0.64465839432268 0.73992931564039 0.50575851632514 0.97942413113349 0.73840023968266 0.84074832376148 0.97379799075269 0.88684020704475 1.2216002046214 0.75723635461635 0.79877843664284 0.88328956777889 0.85701704022325 0.74046196433942 0.56674424053408 0.63454212954524 0.99969602032393 0.79594450856739 1.0397782066733 1.1334085581287 1.1289093049782 1.526207340284 0.50645075423395 0.65655890477595 1.0046480891436 1.149895606844 1.6195865494902 1.4896535673004 0.92619320299655 0.8061010285044 1.8076656405917 1.6341942250264 1.3622646582949 1.4942002367971 1.3302354144965 0.76458799377653 1.5869024879406 1.3339030886635 1.1882195143722 1.2663147340451 1.1466102907055 0.88051260187973 0.9521104612752 1.1204202560096 0.95367546622134 0.95560875313731 0.88952113253183 1.2664756105822 1.5256381827983 2.0487666486552 1.7531442440767 1.5079251927035 1.283667788799 1.1521977286773 0.77248527480458 1.2752625018761 1.0744817184998 1.352735502673 1.0560061625797 1.0587331670338 0.90466619086505 1.2284562906698 0.85481955602832 0.83576651602269 1.1669612549616 2.016262226058 1.8906189080135 2.0102940274939 1.646977847356 1.1306077353535 1.3701753167177 1.5046007236908 1.4367511366526 1.3827718129472 1.3389990334598 1.3481277555237 1.4811033052693 1.2030386557312 1.0007888460255 1.852446421437 1.6746598117455 0.76584708119073 0.46510416638942 0.61837225590228 0.52869713557675 1.2689789627804 1.5022459212342 0.56881365890026 0.48067602958904 0.57457410