# vtk DataFile Version 3.0
d-3__ created by libgimli-v1.5.0-1-g5991b6ac
ASCII
DATASET UNSTRUCTURED_GRID
POINTS 1483 double
3.3802423101098	12.435481574566	-0.57001420684378
3	12	-0.2857142857143
3.4959596309848	11.998298039034	0
3.2490070092203	12.168560129388	0
6.0395510135596	13.367156253372	-1.2757999763971
6.5930002103947	12.023472734859	-1.2922192071349
5.4998599382803	12.552571297657	-0.59337769664261
5.29662096318	11.932351047571	-1.5392209346082
5.6153020589615	9.1440579133635	-1.0774777831171
5.7237069713611	8.5589744845549	-0.30827017969781
5	9	-0.2857142857143
5.3151026533923	8.4249591108801	-0.38240156963578
2.3178923476779	4.1926464382665	0
2.5373292327812	4.4716333182052	-0.48281884804687
2.3342974478463	4.0018571812202	-0.30572640106363
1.9994701911036	4.4258543307655	0
4.8968211033092	12.507755029533	0
5	12	-0.2857142857143
5.2932790228536	12.494788035524	0
0	0	-0.2857142857143
0.54768630893449	0.55020446432687	-0.60775225926193
-0.16846798780902	-0.24002860812406	-0.65332445545953
-0.28063481777066	0.41453578455018	-0.44890469943706
7.7	3.575	0
7.3102059000399	3.7470939102263	0
7.7	3.6732286664853	-0.53772532608145
7.3176226410905	3.2857280588852	0
-0.7	-0.10798167686939	-0.47517111104905
-0.7	-0.57707899562378	-1.1376990549501
-0.7	-0.61986630133594	-0.43486724047509
6.3962361866998	10.611290418241	-1.3182185489848
6.565939673393	9.5694509864085	-0.57379796778735
7.1295911592009	10.496363016677	-0.48219980545192
6.3839624611364	10.341052129245	-0.35036617584397
7.7	14.3	-2.5
6.7623683783591	12.987112326146	-2.233077027779
7.7	13.059020885286	-3.3539705522597
7.7	13.327367479896	-2.129915020979
1	6	0
1	6	-0.2857142857143
0.93236760237426	6.49128333619	0
1.3454573625665	6.353105459937	0
2	5	-0.2857142857143
2.1684298754346	4.7403793023811	0
3.0226729813355	8.4836106439452	0
2.5164096947204	8.910651700233	-0.41109082170818
3.4071201441719	8.4167381876838	-0.59109415332551
2.5374808587914	8.1383747261781	-0.35604109466584
6.2778911301719	14.3	-0.61136458754231
6.2225356773765	13.691717475418	0
6.5208076177088	13.495118289851	-0.49928801204061
6.7358646795693	14.3	-0.39005656748015
5.7965188279432	13.281940723964	0
5.5320359851605	12.925291312368	0
5.353113789845	13.264183036004	0
5.5919457801018	13.101154188917	-0.33537516396337
7	10	-0.2857142857143
7	10	0
6.5010306427949	10.010760669106	0
6.8196744207924	9.5136576917357	0
7.7	1.1375	0
7.7	1.6430719769933	-0.42557297445049
7.1939383721229	1.4724531054162	0
7.7	1.625	0
6.3572581294301	1.4772201134971	-0.96507376287322
6.5574763981385	0.84898833643366	-0.48332647821142
6.7774291048203	1.7003141153393	-0.4123635555875
6.1433933962903	1.4220674799247	-0.28622251631329
-0.7	9.1984657118068	-1.9278839451739
0.33291529395702	8.3305676904572	-1.2970017952003
-0.7	8.1442617177323	-1.0898260028896
-0.7	7.644268062563	-2.0766032868031
4.508194357046	8.6258793740749	-0.60770874662543
5.0095189690676	8.5009469809039	0
4.7609249278557	8.7686419230913	0
6.2306672701993	2.67753718	0
6.6360398560532	2.4670661479797	-0.44686919005428
6.4910302172834	2.4939022421641	0
6.1550873755842	2.4572757142813	-0.33684154297057
1	1	0
1	1	-0.2857142857143
1.4901571161019	0.99574153349402	0
1.1736530561382	0.72346383359363	0
2	4	-0.2857142857143
2	4	0
1.6440539242474	4.1532454240512	0
7.7	6.9501255673919	-0.74418826283982
7	7	-0.2857142857143
6.7521552376889	6.497772044976	-0.66059363300197
7.7	6.3887218416049	-0.46884913673037
5.9482896260331	7.5800048202495	0
6	8	-0.2857142857143
6.3095291646476	7.6896230263426	0
6.1432247512519	7.3579252770212	-0.41388970597853
3.501272057481	12.437082442362	0
3.3297831413816	12.805427976196	0
3.6823393063421	12.851671876304	0
1.3671388209093	10.633374397873	-0.4152980605108
0.95248763025238	9.835503527633	-1.7808732395437
2.3518021577517	10.495200039554	-0.50930668321109
1.5373497846005	10.021005779616	-0.41781002197689
6.2054585007625	14.3	-1.3884356875417
6.9442913034148	14.3	-0.89278753613404
1	8	-0.2857142857143
0.54167473049383	7.7707286368021	-0.37916050195481
0.44975345341211	8.3808810318019	-0.31136669048163
1.022076618805	8.4121844676845	-0.45670843222423
0.89173681858685	4.6122796653579	0
1	5	-0.2857142857143
1.2386083631299	4.6841794176855	0
1.3923592539172	4.7130963353432	-0.25978315417498
6.4242299347383	5.6840176993625	-0.35514079575845
6	5	-0.2857142857143
6.3424541740313	5.2754910113697	0
6.0447933133998	5.5049876953384	0
5	2	0
5	2	-0.2857142857143
5.5190673049038	1.9208326821789	0
5.2306444928855	1.6547875838902	0
5	13	-0.2857142857143
5.257359886178	13.540476325965	-0.63012071696907
0	6	0
0	6	-0.2857142857143
0.066757795936057	6.5008369551487	0
0.29243888553297	6.1743316976873	0
7	9	-0.2857142857143
6.5033796411008	8.9981073418213	0
6.5607922823332	8.4440251373986	-0.63122800754088
6.811726958696	8.7028726276344	0
7	5	0
7	5	-0.2857142857143
6.4986646723997	4.9192017057136	0
6.7141996182955	5.3303468264748	0
7.7	9.5988491781319	-7.4736716195817
3.1507199964473	10.394874003632	-10
4.8663216648816	7.3792654266676	-10
5.1015502438684	11.553440122249	-6.405163284031
7	7	0
6.9589015254993	7.4884372736447	0
6.761634669635	7.2408783569561	0
6.0574437090791	0.20878539066113	-1.8779478182653
4.9838025543493	-1.3	-2.1179854334408
6.0308685444023	-1.3	-3.5425074203685
6.440522236286	-1.3	-2.0103523001383
3	2	0
3	2	-0.2857142857143
3.0105846506	1.4855923993349	0
2.6480485575569	1.6700894103009	0
5.0527203000088	13.535479310798	-1.5373151531841
5.0246691847863	14.3	-1.036131499603
4.1300067609037	14.3	-1.2024507502556
4.4744197407865	13.547407617085	-0.63586628370479
2.5813517996865	9.6286485974984	-1.0236151505326
2.2955236368793	9.5881134365907	-0.29154811067367
3	10	-0.2857142857143
6.4248505083522	12.522044346884	-0.42559946143008
6.465073985677	12.51782996062	0
6.1644652963082	12.36965297069	0
6.3832046574853	12.135664356038	0
2.9908655166747	12.498069465114	0
1.984703560175	7.5906357794687	-0.50777967523709
1.0508409188237	7.354634772545	-0.95680796450018
1.4515039911109	6.5829264157992	-0.56173008002516
1.3866216751759	7.5118935788728	-0.35488362790971
2.45	14.3	0
2.2168273415577	13.627179222019	0
2.4554693735383	13.497784276817	-0.39727655195048
3.032551925238	13.762466584345	0
6	11	-0.2857142857143
6	11	0
6.4843452951013	10.966514281357	0
6.2440599782187	11.234710090977	0
5.5	-0.5576923076923	0
5.247952850371	-0.29481663567353	0
5.5452342683804	-0.096294524539033	-0.49623355575102
5.1016398375367	-0.61489919294387	-0.38960315167385
2.3232496140345	4.0110297188843	-1.3835068702753
1.6586320571652	5.8268322896535	-1.5213554090482
0.71002746520551	3.976198472286	-1.505315421377
1.3296414347056	4.9089994064226	-0.82629172929831
5.6	14.3	0
4.6510156691765	14.3	-0.56274723813486
-0.090060726359069	5.5363033123106	-0.44581840212762
0	5	-0.2857142857143
-0.38456492153953	5.1805342841446	0
-0.7	5.0205501441189	-0.32507149572551
3	13	-0.2857142857143
5.1848675157348	3.2965660830064	0
5.4046165570399	2.9501485228537	-0.43988698776777
5.486289771732	3.4981838484395	0
5.4682750147717	3.0660382780841	0
0	8	0
0	8	-0.2857142857143
0.5178658825659	8.020802151125	0
0.25864598874121	7.6639427314904	0
6.7098208972434	7.2950601162224	-1.3269022195366
7.7	7.949747446039	-0.91833665053736
7.1577047253729	7.4844276204668	-0.64272934527953
4.5892004575887	3.5369189576522	-0.55981654583505
4.4420188491858	3.4660037233365	0
4.711527897636	3.7375259681419	0
4.3494632088922	3.8023533541114	0
4	6	-0.2857142857143
4	6	0
3.9913416390327	5.4988534517732	0
4.5093195747582	5.724109532591	0
1.4	14.3	0
1.5	13.55769230769	0
0.89284349994875	13.714781914708	0
1.2292962491126	13.670420041977	-0.37788942865261
4	9	-0.2857142857143
4	9	0
4.5502440226935	9.051086551406	0
4.2963154051231	9.3907765114078	0
4.5321110402369	7.5028925212181	-0.60552533206341
3.5085861108931	7.3893844432383	-0.64873189634878
4.0050480592533	7.4977657988521	0
4	8	-0.2857142857143
5.8961095330637	-1.3	-1.0125722125019
4.8982045728458	-1.3	-0.82217786726149
5.2296982103621	-0.31621891710017	-1.0679345669244
4.9010483556055	1.478997710586	0
4.5631533182214	1.9074133665015	-0.41231302454656
5.0320642355688	1.4518180616801	-0.36509190625555
3.5357179442866	0.46434418042464	-0.60031716899974
3.9407498163335	-0.4411178910574	-1.1087857494349
3.2826824657074	-0.47747544834602	-0.50866572047373
2.802260468126	-0.22902113419037	-1.4542342115515
1	13	0
1	13	-0.2857142857143
1.1191337005982	13.329221525091	0
1.4884720276527	13.02962190928	0
-0.21681247778723	8.5792000107362	0
-0.35118339610893	9.0917088673227	0
-0.7	9.0968147603684	-0.35256881313688
-0.7	8.9375	0
0.51662331659314	-0.40156299802931	-0.67799391089861
0.13474046208011	-1.3	-0.85683826964205
-0.16941603187845	-0.57512411281067	-1.4019543009948
6	13	-0.2857142857143
6	13	0
5.8068477026831	12.499749736815	0
6.1890713266052	12.67695534294	0
2.5984255358496	5.4578875982232	-0.67264342113488
2.2172109403706	5.4325217687574	0
2.4824672258873	4.9705265694472	0
2.6598112065826	5.3330483814808	0
-0.7	0.5146532048839	-0.51418317722913
-0.7	1.0492756199945	-0.88024243711367
-0.37698118088761	0.89350663208132	-0.33360419980628
-0.25096134668857	0.95145340086689	-0.90448711690516
6	2	-0.2857142857143
5.4002158317804	1.7678073061348	-0.50898482673054
5.8183999242367	2.5164331321023	-1.0840550371572
-0.13917028340788	5.5182991349521	0
0.31578338747353	5.7567158690792	0
6	12	0
6	12	-0.2857142857143
5.513035862904	11.994753403328	0
1.5285536174902	4.2362319729344	-0.43851980589517
0.57100063419133	12.499134596467	-0.56842257570583
1.2565986295401	13.42724014175	-1.149557674079
1.4486633887383	12.69302170761	-0.31714242590465
6.65	-1.3	0
6.903739311401	-1.3	-1.0953527719967
6.3980205255852	-0.38130956989248	-0.5855507841991
7.2175457166608	-0.5710098692386	-0.51938212652516
3	7	-0.2857142857143
3.5055774955602	6.7395375676091	-1.4094768265058
2.383927159844	7.4535505157878	-1.0620490471275
1	4	-0.2857142857143
1	4	0
1.2222221827385	4.2954008280594	0
0.82345085295407	4.2815033897546	0
5.6	-1.3	0
5.790373644402	-0.65252487431205	-0.38521635467031
[...]
CELL_DATA 5483
SCALARS Coverage double 1
LOOKUP_TABLE default
1.4860100591359 0.72513511567333 1.3791740908285 1.5509243047515 1.4232747943223 0.85158273135688 1.1152150938219 0.63810319216228 1.0882744882175 0.18817063574229 1.8156023019319 1.6376873829035 1.4791375344576 0.70300549521732 1.2319654620659 1.7694267239146 0.95464505729937 1.117144741017 0.61676210675325 1.6308115126427 1.4192772729242 1.6801529429996 1.8661421568045 1.039360725191 1.5654490541255 1.3736167487932 1.229430611803 0.56384753633004 1.3419023621869 1.6241710517187 1.5335895199677 1.7581947016724 1.1902604135983 1.7659813205499 1.4575836878211 1.7477370615627 -0.40738108851852 1.7767260136146 0.2264025366152 1.7816616154691 0.60304615201881 1.3635672624912 1.369368340527 1.4440727476712 1.26957371931 0.87510713604739 1.8075604598231 1.0173748629724 0.92142798255797 0.54993875727683 0.67322257405765 1.2550078726508 1.3612941392883 1.4969242713382 1.707529397745 0.92866681717923 1.4071201845619 1.8187165652582 0.83977748758687 1.8149188789122 1.5003837468003 0.59391196097461 1.4067620460075 1.5047513111184 0.69711257381321 1.5604421808292 1.1661537678042 0.61067467875571 1.6856778314272 1.5465490336232 0.80388760452984 1.0661683252746 1.749304175822 1.6713533763971 1.5159467165776 1.0157243222979 0.60481830038094 1.2477545245762 1.9112576762013 0.61718690482234 1.1391844355799 0.77764851684296 1.4901776126582 1.2025522249117 1.4840810644368 0.96043480798594 0.5917894995561 1.8473107629136 1.7489719699397 1.5416882607227 1.1431274014699 1.1733942618012 1.2470176825937 1.1986924305319 1.4438978218258 1.5995100899549 1.5701679175342 0.95394665238419 1.621283029081 1.6522027734032 1.2818387474343 1.7796953757549 0.92977070625975 1.5701734592797 1.0639343869561 1.5286606073096 0.29294595798837 1.1006423164284 1.7660372724951 1.8564221077809 1.4768710380823 1.2669812547546 1.4525423410589 1.382304718629 1.141782430456 0.72943144425796 0.9276135647899 1.0018294732941 1.5460624741383 1.1722443300204 0.93884486193469 1.592418133668 1.2251268863004 0.40424899391864 1.218088490984 1.7620951977928 1.0418935874376 1.7905910786421 1.3038537459602 1.507424254588 1.4763212808827 -0.23907906919641 1.0439193213016 1.3815609672817 0.79400885991739 1.5712337672161 -0.43308433145765 1.3282898493344 1.3181552644303 1.8425372274205 0.53046552846588 0.14123891410529 1.7609183864872 1.6682476526136 1.4861636530213 1.4072949867938 0.88671213176109 0.64951245915136 0.88930054804496 0.57580067046459 0.35357723612749 1.8383563178187 0.78865655317939 1.203930850215 1.3671034943108 1.6202881808217 1.4595396112804 1.0364419697483 1.7114337291064 0.76496560732334 1.4213674644042 0.70126023975997 0.99542889828293 1.5650745319464 1.8480213084182 1.6307220956093 0.57892448494945 1.7814586191353 1.4145733588207 1.790307275085 1.5742071323307 1.1615782988668 1.2368826003482 1.8125366642407 -0.10654460514053 1.8489649853229 1.8943710377171 1.750398814592 1.6743273371104 0.15535601087277 1.5357529372278 0.38598714149243 1.0976636311948 -0.10083089094151 1.2096205435976 1.8339748131421 1.385098329281 1.5481133422284 1.8087395029532 1.3149561321597 1.8357441933734 1.308343316032 0.7165073732358 1.5828820965725 1.2548014920845 1.0537598874648 1.6162849158769 1.5198800882388 1.3839899428014 1.8475694611226 0.50658441267083 1.8791730430726 1.3885445330904 1.4801232417351 1.8943954767815 1.6389908317042 1.7030935433771 1.4500271315332 1.0549573019146 -0.46115103470178 1.3657232192229 1.058243467551 1.1631618590742 1.8737701462133 1.8392640241454 1.8469411376733 1.8380114025207 1.5805021082592 0.8441481886081 0.84254638876622 1.3595221571055 1.7087366679118 0.54182108673535 1.8567165263907 0.70132626996084 1.6699980525188 1.5173243593222 0.84110038833061 1.9122084181043 1.1392354951631 0.90179262127144 0.86179548654489 -0.15895226798586 1.8419850497228 1.437635399443 1.1532822627274 0.55449969930809 1.7299854991653 1.4821062489526 1.5185974192888 1.7514592316078 0.68495968074037 1.5748549834366 0.94377328125566 1.5557655089086 1.8275764416401 1.3084170767974 1.5156355208317 0.49215699859471 1.594037076001 0.67301640844843 1.6664186240572 0.45152241295684 0.19644070865582 -0.0017974523861546 0.43379560236222 0.86176995569692 1.8439943919375 1.2957024496062 1.8556117541115 1.0242977428149 1.0352062406563 1.3694588070144 1.3348028550186 1.7246987076884 1.8156258824544 1.4382687311697 1.8436095622076 1.5167882604935 0.70574361351572 1.842343739852 1.8727469721706 1.543225253025 1.4014927923063 1.830217015006 1.5343594148395 1.8418183624688 1.5643508769399 1.5513502217323 1.7134990455425 1.621718006886 1.9132667971802 1.4139636258659 0.51695624437464 0.49055611288665 1.2464574192 0.94274909059677 1.5720444637792 1.7280881897204 1.279312476094 1.5188596722441 1.8313434668432 1.7092538667361 0.5491366630451 1.3841603325928 1.6752705876529 0.7078417675364 0.2447069681753 0.82365084548768 0.48734457697487 0.43923831903238 1.5470434706254 1.3887502918914 1.027511516274 0.79963555993545 1.0814228243149 1.6003502482048 1.2916841700157 1.5205140876995 1.1010632429559 0.71971214011917 1.5684254219277 1.2525867748894 1.2405061256482 0.61987119086101 1.1405001507456 1.5056617334194 1.0682305343016 1.4262714311507 1.1388474143978 1.8028907246677 1.4732642502742 1.5135329148474 1.3956119326986 1.8956053579116 1.2460985620003 1.6732273884194 1.529930709782 0.45217569683174 -0.64314547880928 1.6096646054624 1.1817440552805 0.71249035221083 1.5143086383755 1.4375641870795 1.7839529378152 1.8571282616001 0.93325104526575 -0.59883142692798 0.82971567165493 1.3994956796267 1.2096342371053 -0.26692042391569 1.0526314503284 1.0384390492096 1.4022159572299 0.90208290470363 1.5306689538586 1.3543015946966 1.2243281708241 1.5070960935673 1.7080886456773 1.7820777134001 0.58368208371443 1.8634014745323 0.9793964078513 0.093685915006749 1.2886550968062 1.7293487366531 0.47381362049028 1.2932000922039 1.3575990519382 0.70188514894102 1.3627510071902 1.725959152007 1.4580149615676 0.85737988605965 1.7572477205474 1.6601005750591 1.1833845029977 1.3066633214809 0.95319872799996 1.4477841392397 0.25612847884771 0.56229892770246 1.1320445416991 1.2768167535552 1.5086918227402 0.74480567680648 0.30262925102925 1.8156423021138 1.8721276381152 1.8838826904147 1.5851698862218 1.3271459176567 1.8438400932661 1.7971805885774 0.56403829819689 0.82118040930902 1.5132603927217 0.97647958130096 -0.24120760222992 1.5712724046676 1.3898654162625 1.3858492568656 1.5687948522993 1.5936050072375 1.4490498800717 1.3472733729905 1.530134638839 1.0279784599838 0.82051345090281 0.81007171483706 1.7318357345637 1.9132180425835 1.2211210403982 1.3297974636634 1.6989069144824 1.8369880120833 1.2633503405099 1.40520729789 1.4946043819688 0.63655722011185 1.8105614143492 1.3934392168028 1.4287427780765 0.90804293180874 1.5385373872748 1.8272055574126 -0.40865570507236 1.5396274663909 1.5037734899911 0.50542943437857 1.3797019554198 1.3355570909109 1.0257609763395 0.18224006438618 0.097788974824687 1.5669845519795 0.28410598313905 1.6748421012081 1.2476267657496 1.8075193113133 0.86054236373971 1.7255600170339 1.3856472196962 1.7219627908624 1.7927462391361 1.3904280255756 1.1812395102984 1.4085693982653 1.5533959761578 1.2557998428991 1.7152011779153 1.8131949898639 1.5487297708236 1.1241847794969 1.2620109213425 1.1867510589811 1.2191582516405 0.89014360095013 0.67558039188537 1.4358612170941 1.5043513558804 1.5087310503841 1.4423558052551 1.8684674396745 1.4020839998573 1.6742208595909 1.4819918202404 1.8648025659266 1.2720974182142 0.97199434541301 1.5787277308157 1.9030563780608 1.490633869727 0.86068925184442 1.3297937877557 -0.26613619095767 1.8215647292862 0.43138434598646 1.7798999593254 1.4632540630174 0.21371131724856 1.5415984239193 1.2918138374274 1.0467144804605 1.4834367445566 1.6974423893874 1.8298104328695 1.4119498655278 1.4338494521833 1.7907633001028 1.6184340814941 1.3558669895225 0.69901874067585 1.5827401877416 1.5372777849683 1.5115249632531 0.6416519262643 0.42150475602229 1.4257774956232 1.2103254808308 1.4807059738962 0.81698910601584 1.835009696469 1.3770947504721 0.79595933005632 1.9047353926021 1.4012660898846 1.0366910829929 0.61446335994108 0.81510636612654 0.97235166488295 0.50353097462248 1.6767547152876 1.5770046858312 -0.045672082404847 1.3054815435825 1.1437428655787 1.4337902086806 1.3332110467375 1.5146822449231 1.491301437189 1.7766930606772 1.0177967162657 1.5740229615137 0.72956866705033 1.0559574586749 1.366814086702 1.579171765816 1.0804195883803 1.7656234538823 1.6013584271386 1.2936435329881 1.5719798301734 1.4154809764925 1.6553415560821 1.5501258829876 1.5931834948735 1.5549057628884 0.38912294284842 1.2946156073274 1.411407021452 1.8108513672993 0.74720321006393 1.7717554155501 0.74008532063955 0.87041381266697 1.3139264617108 1.7839759295493 0.84440842611246 -0.71782433091123 1.2343003084149 1.5206136814669 1.2517016322655 1.6662803340053 1.4465720506884 0.63881449510476 0.79782378718482 1.8092613302668 0.91602684194989 1.5722597083769 0.8196964270439 0.5835732532195 1.3446595304086 0.55380381636232 1.5423092860104 1.5729758430645 1.5088676683597 -0.0031002069390559 1.0922336245097 1.6785814253143 1.180894379384 1.50916150402 1.4099560798826 1.3774100527991 1.4388219877536 1.0467230617109 1.5765618347355 1.5267200475853 1.0082639342663 1.0690476365508 0.22626030151171 1.8638613071473 0.90064855234442 0.31402734270227 1.7254347795769 1.3166790004206 1.6073798618778 1.680752942928 1.6639733881669 0.62580001053368 0.83362119064114 1.5762744504254 1.3641210231967 1.6431937027481 1.1280079569414 1.4630861040118 0.74501940911586 1.0360815418676 0.81122400585703 1.4947080476815 1.2240883537378 0.65274181808883 1.8489334540979 1.6272875154188 -0.57656179753759 0.10711491427938 0.87385887804777 1.6338354241396 1.4960659768171 1.5255422230619 1.823635363571 1.0743177528313 1.415575823194 0.57995413342 1.6552952707788 0.32958619364207 1.578857443307 1.0810967686794 1.5578810938649 0.88318535709247 1.5801523069021 1.4902042868644 1.3341632689807 1.4100564435211 0.33184432391995 1.8553016279148 1.1269891628943 1.4875508446566 0.42543724444666 1.4349334773406 1.5493758618498 0.93356037238965 1.3254918466394 0.84908974479445 1.6704913985372 1.0607304376855 1.4551767914696 1.3695540143178 1.247607008085 1.8447684647752 0.66429448477842 0.37888908917677 -0.56604424098356 1.7628216454507 1.1015016952516 1.0385753882857 0.7373967558354 1.7871841259922 -0.23143529770603 1.5984468167792 1.5577446200857 1.0700168829909 1.0141209738695 1.7589692780707 1.8544347938335 1.4532505254551 1.5040760383666 1.7772170847581 1.689064011485 1.8311879313838 0.71755634744161 1.299745428054 1.8342638921529 2.0231578560407 0.65497260561522 1.4192582365172 1.3438654979116 1.4482581965071 1.5649783568045 1.5803446829568 0.59435409785533 1.7205932391275 0.65680522307511 1.1127584141312 1.4576302619869 1.9047069024361 1.0991859510194 1.3948752980011 0.0842169951565 1.6546379320599 1.6355111860483 1.1611137717263 0.25322830968524 1.3731711903894 0.68786308951306 1.6439742749992 1.1459517480208 1.5087155263284 -0.3846237262523 1.4643488068108 0.65791952771649 0.74576220436798 1.8398735273621 1.2566759866443 1.2881834981084 1.5211666986921 0.43703117577396 1.8541399877549 1.8419303247946 1.4991998311455 1.8096813469504 0.63068750132235 1.3217461879554 1.6958043716595 1.5048565697929 1.029434096143 1.7742362779317 0.48592188340454 1.2506994122829 1.3695023753053 1.1611019239753 0.78038476725192 1.7572598535789 1.5354306949242 1.315161803585 1.3445110576949 0.6806946591761 1.377470270866 -0.44470358103954 1.5601412714879 0.99327876265835 -0.31760104318274 0.23023033555574 1.5249762668674 1.7035361315236 1.3332547258957 1.3602540916463 1.8571836275302 1.5109529352918 1.0504030542412 1.6044686350692 0.90304775106783 1.1504777828297 1.4309629345107 0.95367595573369 0.32350769575953 1.2221270146002 1.4321476255577 1.8411470185174 0.7306417955598 1.6418366622199 1.5119252982361 1.4326799107882 1.5515842906513 1.5723835553921 0.16690431466355 1.0041394190248 1.2806591130356 1.0078407849554 1.2211745249414 1.1087983360606 1.7449403519959 1.0275241180941 1.2264826932944 1.4382355526172 1.758387341108 1.7196611094059 1.7217388938745 0.61319667244491 1.8539338398972 1.4530004857818 0.72884448169187 1.1690263802268 1.4708249970867 1.3879829169367 1.0834411259414 0.81324249028977 1.4352279683222 1.5198014211864 1.9055072869399 1.4129560873553 1.2872440183704 0.75480361991326 1.3887760374707 1.550336918806 1.5586438906004 1.7972605292873 1.3932655845897 1.4721262196694 1.0645775954014 1.5256151655603 1.5738987255264 0.80498437133657 1.8755205123394 1.3769163353312 0.54115246740695 1.5825301022056 0.85670501684539 1.4978462402063 1.1932729798862 1.7085418923588 1.174285012384 1.1887351109337 1.5513851080859 1.1188730866198 1.6310952218407 1.8354212174818 1.3097192903768 1.623522299757 1.4332454297211 0.45561309957884 0.9676109689513 1.7686595535533 1.6915057510338 0.080645190031486 1.579960830058 -0.58820140116621 1.3706456754043 1.7044007425486 1.2820971759455 0.59223563869495 1.7522953517779 -0.73270105807719 1.7101278569634 1.3084003947705 1.4166296314369 0.70824771441909 1.1476915577897 1.3660865814545 1.0194567669443 1.4414945735712 1.0587576007556 1.4887562054589 0.75778122635088 1.4002475659256 1.4851409061589 1.1960197134015 1.3073992442517 1.5644665843594 1.5462671168327 1.4448534321442 1.0670719484673 0.59989036658887 0.73005443217743 0.59828871307694 1.516140815178 1.5546464334897 1.568084296731 1.0542283871938 1.6480853195308 1.4681195445071 1.0790793038582 1.5721152994366 1.4322734557574 1.5777275018212 0.48252987531233 0.94949531869166 1.5850865410387 1.2495777903064 0.91699766357789 1.2699446537783 1.330898016427 1.039923062464 1.2603872103497 1.5099839082208 1.483814658237 1.1823127105517 1.8485433823542 1.8077000772291 1.0600468808843 1.2493845759016 0.70547040515126 1.3156235738258 0.64840510687308 1.6272737417743 -0.23599652927002 0.64667792697307 1.519809163163 -0.30942098039402 1.6320180185652 0.66876883635722 1.2677627329491 1.2896218473434 1.4045767651935 0.80010422748671 1.3879034200175 0.42403383426891 1.2271857237528 1.554240233204 1.2532669957768 1.5212462623991 1.5030650075773 0.92467349379647 0.77804543426173 0.37544457250859 0.7656182533174 0.50197159970169 1.8190514118527 0.42447426311351 0.90844503261675 1.5071974957419 1.2785408835112 1.5426700537218 1.6937871761969 1.4376797437461 1.564245400527 1.2132166204734 1.3692559546484 1.496023839034 1.5162156242421 1.6743065302048 0.53044059659729 1.5468423910089 1.554484491724 1.1464455169579 1.1269860761251 1.6359739072239 1.8707795691869 1.5890419166049 1.7047432797596 0.63606953968556 1.2198686179388 1.7956014128353 1.447546140245 1.2769506552886 1.6503366272459 0.99301756853968 1.3575668601351 0.37638300462213 1.7318094825705 1.2188643845653 0.65586129343385 1.4481263607871 1.4966771283712 1.3995731079339 -0.18720965385532 1.2628002158655 1.5621278313971 1.8491075860884 0.30270440611275 1.7567278802489 0.78880796615194 0.19322711811385 1.1469084789285 -0.50043514080013 1.6834271112834 1.8894297305946 1.3985976482198 0.98002738790217 1.4920411246302 1.7382816535663 0.35415759076378 1.5621803809724 1.4656020632262 0.19031658461232 1.4213042825502 1.331496047172 1.6233674964986 0.93816888756633 0.50893671026401 1.4179235134669 0.59090758202022 1.2454622796651 1.8475368543221 1.3375092514158 1.4845950474765 1.2722979343242 1.5910412148868 0.31322319392676 0.35961875153067 0.95547665179464 1.9868108873148 1.1033354111265 0.59862220407498 1.5230784622958 1.5535218394165 1.0354066284209 1.3394791766188 1.2237468152879 1.3058189725426 1.552453909905 1.4601683688539 0.71905216572021 1.2832875148388 1.3177624062532 1.5823099201356 1.8604825007885 0.57740201807021 0.83011559017568 0.45730169270541 1.4927014684088 1.2991480183709 0.77355546711269 0.96763938507924 1.7819557023278 0.47276985906137 1.1710350140768 1.0411127137307 1.2628703407634 1.7200175762972 1.2197421084786 1.1378065880984 1.7648460480138 1.8623790841105 1.5013457028642 1.7081451919635 1.5717115076523 1.210678550205 0.77319278596845 0.72561828735134 1.4699298227035 1.0393730385145 1.1651037924638 1.4707895757415 0.72183247683163 1.6093925553454 -0.17238493470263 1.7885817776364 1.5870377122738 1.3404082718818 0.49917301237309 0.563551730618 1.7305411382217 -0.047227260583402 1.1276241337741 1.2206830054075 0.58301334143514 1.1287706021373 1.8066752041222 1.8075982794415 1.466250575374 0.64904381921762 1.6833139370578 1.7395568089947 0.28353683654474 0.88339695135308 1.6165460068914 0.99360784015229 1.5399812486547 1.5273320180871 0.90264523580451 1.3529718365032 1.1999939403507 0.72598039515694 0.62093480584682 0.59190235191698 1.7774986895847 1.8220509529184 2.4686996018895 1.5398217741674 0.85544033247693 1.2852656945533 1.4774815330613 0.90961313364801 1.4767093660114 1.6898313614844 0.47700000673642 1.7206169220204 0.84585487841849 1.7194083754861 1.5183964693163 0.73211492354333 1.1917117885008 1.4881019470349 1.3813217307907 1.2240038438292 0.86561461175324 1.6026608061602 1.7919323445796 0.83532374847958 1.6638496482204 1.7238020972562 0.40774332714632 1.9603260866346 1.3947444675941 1.1633911238228 1.1073090840226 1.0906799891012 1.5431485069643 1.4598594613513 1.6912880107936 0.85920897650278 1.7978426105451 1.2537008752404 1.4077193018922 1.3029008956916 1.0165150312974 0.62874782494876 1.8725269167762 1.8127072862977 1.418545558615 1.8951675341168 1.0319512527447 1.0121717267356 1.497276828989 1.474751693238 1.3386796444764 1.3393187655614 1.4815843291007 1.031077583805 1.7879138315858 1.8373019907379 1.3883969636193 1.043263751038 0.78440513662263 1.4017010274627 1.2492869309505 0.29204774804363 1.5471343297741 1.6976465223607 1.2706821922673 1.8552234551867 1.3368175682745 1.0331895667944 1.8462082804657 1.4767912813651 0.55643096713072 0.70962306106867 1.274121953431 1.8343628733769 1.1618065924808 1.0283251427428 1.4294782052143 1.2945677043298 1.6983951244077 1.5343718050209 1.197623689825 1.2827634527007 1.7056497341368 0.84958472793041 1.5906106454721 1.6051059645857 1.8617734741268 1.4500357100788 1.2609416479251 1.7479856873878 1.7245832439141 1.7904115963963 1.5022113815477 1.440464613762 1.4611122005083 1.5671810625983 1.4427641649299 0.9099339788173 0.0092787574479983 0.86247801585122 0.76451597050461 0.74704280443527 1.5660387208526 1.2225259762109 1.752288878055 1.2265889470341 1.5070867104788 1.2411550371411 0.57641865177936 1.7486574240839 1.5237500001752 1.6172681266521 -0.41577687789644 1.8254596280761 1.5871163141405 1.0089055707592 1.800108592083 1.1698267026702 0.89088946803087 1.5120919826351 1.2699742137556 0.56926451651001 1.4391831509063 1.1765119301502 1.0737728428652 1.7538194406642 0.92488374506937 1.5647647263953 1.2955968501429 1.3148469575124 0.96167074133202 1.7641211615074 0.18686485733772 0.67111445042775 -0.53736357324146 1.3580623286357 1.3970529753191 0.77135928161301 1.0345323915392 1.571696769832 1.6451797549531 1.3730536014575 1.6003288893287 0.86693071301966 0.84064468646286 1.8044809050131 1.7226038448931 1.4715964910709 1.550558075596 1.4354373586925 1.3978441504783 0.57568822386352 1.3611874624021 1.6418555253122 -0.176678063626 1.2200888450897 1.8548897068872 1.4194120609336 1.3826059983824 1.2317039130843 0.84624839174501 0.42784486338722 1.5355253573792 0.72171924525552 1.3657535260995 1.3658069456558 1.5237158333603 1.5859936005429 1.7749360964593 1.8099982666966 0.27778968572745 1.4433070188243 1.0803361693731 0.41047610487435 1.7930743511527 -0.52416863469127 0.52509492926217 1.2563088715371 1.7238687015709 0.85349548330138 1.4719487520331 0.52731301123607 1.413851325253 1.0025277735078 1.3013101102925 0.94713301847714 1.0046612888484 1.8598522100904 1.4152935810561 0.71688699680742 -0.1346862937788 1.026438999029 1.2903361276176 1.5213938770784 1.5020271717405 0.93561654289622 1.8178304546791 1.3076764295601 1.4774682133643 1.4326567613699 0.71357538408091 1.53