# vtk DataFile Version 3.0
d-3__ created by libgimli-v1.5.0-1-g5991b6ac
ASCII
DATASET UNSTRUCTURED_GRID
POINTS 1483 double
3.3802423101098	12.435481574566	-0.57001420684378
3	12	-0.2857142857143
3.4959596309848	11.998298039034	0
3.2490070092203	12.168560129388	0
6.0395510135596	13.367156253372	-1.2757999763971
6.5930002103947	12.023472734859	-1.2922192071349
5.4998599382803	12.552571297657	-0.59337769664261
5.29662096318	11.932351047571	-1.5392209346082
5.6153020589615	9.1440579133635	-1.0774777831171
5.7237069713611	8.5589744845549	-0.30827017969781
5	9	-0.2857142857143
5.3151026533923	8.4249591108801	-0.38240156963578
2.3178923476779	4.1926464382665	0
2.5373292327812	4.4716333182052	-0.48281884804687
2.3342974478463	4.0018571812202	-0.30572640106363
1.9994701911036	4.4258543307655	0
4.8968211033092	12.507755029533	0
5	12	-0.2857142857143
5.2932790228536	12.494788035524	0
0	0	-0.2857142857143
0.54768630893449	0.55020446432687	-0.60775225926193
-0.16846798780902	-0.24002860812406	-0.65332445545953
-0.28063481777066	0.41453578455018	-0.44890469943706
7.7	3.575	0
7.3102059000399	3.7470939102263	0
7.7	3.6732286664853	-0.53772532608145
7.3176226410905	3.2857280588852	0
-0.7	-0.10798167686939	-0.47517111104905
-0.7	-0.57707899562378	-1.1376990549501
-0.7	-0.61986630133594	-0.43486724047509
6.3962361866998	10.611290418241	-1.3182185489848
6.565939673393	9.5694509864085	-0.57379796778735
7.1295911592009	10.496363016677	-0.48219980545192
6.3839624611364	10.341052129245	-0.35036617584397
7.7	14.3	-2.5
6.7623683783591	12.987112326146	-2.233077027779
7.7	13.059020885286	-3.3539705522597
7.7	13.327367479896	-2.129915020979
1	6	0
1	6	-0.2857142857143
0.93236760237426	6.49128333619	0
1.3454573625665	6.353105459937	0
2	5	-0.2857142857143
2.1684298754346	4.7403793023811	0
3.0226729813355	8.4836106439452	0
2.5164096947204	8.910651700233	-0.41109082170818
3.4071201441719	8.4167381876838	-0.59109415332551
2.5374808587914	8.1383747261781	-0.35604109466584
6.2778911301719	14.3	-0.61136458754231
6.2225356773765	13.691717475418	0
6.5208076177088	13.495118289851	-0.49928801204061
6.7358646795693	14.3	-0.39005656748015
5.7965188279432	13.281940723964	0
5.5320359851605	12.925291312368	0
5.353113789845	13.264183036004	0
5.5919457801018	13.101154188917	-0.33537516396337
7	10	-0.2857142857143
7	10	0
6.5010306427949	10.010760669106	0
6.8196744207924	9.5136576917357	0
7.7	1.1375	0
7.7	1.6430719769933	-0.42557297445049
7.1939383721229	1.4724531054162	0
7.7	1.625	0
6.3572581294301	1.4772201134971	-0.96507376287322
6.5574763981385	0.84898833643366	-0.48332647821142
6.7774291048203	1.7003141153393	-0.4123635555875
6.1433933962903	1.4220674799247	-0.28622251631329
-0.7	9.1984657118068	-1.9278839451739
0.33291529395702	8.3305676904572	-1.2970017952003
-0.7	8.1442617177323	-1.0898260028896
-0.7	7.644268062563	-2.0766032868031
4.508194357046	8.6258793740749	-0.60770874662543
5.0095189690676	8.5009469809039	0
4.7609249278557	8.7686419230913	0
6.2306672701993	2.67753718	0
6.6360398560532	2.4670661479797	-0.44686919005428
6.4910302172834	2.4939022421641	0
6.1550873755842	2.4572757142813	-0.33684154297057
1	1	0
1	1	-0.2857142857143
1.4901571161019	0.99574153349402	0
1.1736530561382	0.72346383359363	0
2	4	-0.2857142857143
2	4	0
1.6440539242474	4.1532454240512	0
7.7	6.9501255673919	-0.74418826283982
7	7	-0.2857142857143
6.7521552376889	6.497772044976	-0.66059363300197
7.7	6.3887218416049	-0.46884913673037
5.9482896260331	7.5800048202495	0
6	8	-0.2857142857143
6.3095291646476	7.6896230263426	0
6.1432247512519	7.3579252770212	-0.41388970597853
3.501272057481	12.437082442362	0
3.3297831413816	12.805427976196	0
3.6823393063421	12.851671876304	0
1.3671388209093	10.633374397873	-0.4152980605108
0.95248763025238	9.835503527633	-1.7808732395437
2.3518021577517	10.495200039554	-0.50930668321109
1.5373497846005	10.021005779616	-0.41781002197689
6.2054585007625	14.3	-1.3884356875417
6.9442913034148	14.3	-0.89278753613404
1	8	-0.2857142857143
0.54167473049383	7.7707286368021	-0.37916050195481
0.44975345341211	8.3808810318019	-0.31136669048163
1.022076618805	8.4121844676845	-0.45670843222423
0.89173681858685	4.6122796653579	0
1	5	-0.2857142857143
1.2386083631299	4.6841794176855	0
1.3923592539172	4.7130963353432	-0.25978315417498
6.4242299347383	5.6840176993625	-0.35514079575845
6	5	-0.2857142857143
6.3424541740313	5.2754910113697	0
6.0447933133998	5.5049876953384	0
5	2	0
5	2	-0.2857142857143
5.5190673049038	1.9208326821789	0
5.2306444928855	1.6547875838902	0
5	13	-0.2857142857143
5.257359886178	13.540476325965	-0.63012071696907
0	6	0
0	6	-0.2857142857143
0.066757795936057	6.5008369551487	0
0.29243888553297	6.1743316976873	0
7	9	-0.2857142857143
6.5033796411008	8.9981073418213	0
6.5607922823332	8.4440251373986	-0.63122800754088
6.811726958696	8.7028726276344	0
7	5	0
7	5	-0.2857142857143
6.4986646723997	4.9192017057136	0
6.7141996182955	5.3303468264748	0
7.7	9.5988491781319	-7.4736716195817
3.1507199964473	10.394874003632	-10
4.8663216648816	7.3792654266676	-10
5.1015502438684	11.553440122249	-6.405163284031
7	7	0
6.9589015254993	7.4884372736447	0
6.761634669635	7.2408783569561	0
6.0574437090791	0.20878539066113	-1.8779478182653
4.9838025543493	-1.3	-2.1179854334408
6.0308685444023	-1.3	-3.5425074203685
6.440522236286	-1.3	-2.0103523001383
3	2	0
3	2	-0.2857142857143
3.0105846506	1.4855923993349	0
2.6480485575569	1.6700894103009	0
5.0527203000088	13.535479310798	-1.5373151531841
5.0246691847863	14.3	-1.036131499603
4.1300067609037	14.3	-1.2024507502556
4.4744197407865	13.547407617085	-0.63586628370479
2.5813517996865	9.6286485974984	-1.0236151505326
2.2955236368793	9.5881134365907	-0.29154811067367
3	10	-0.2857142857143
6.4248505083522	12.522044346884	-0.42559946143008
6.465073985677	12.51782996062	0
6.1644652963082	12.36965297069	0
6.3832046574853	12.135664356038	0
2.9908655166747	12.498069465114	0
1.984703560175	7.5906357794687	-0.50777967523709
1.0508409188237	7.354634772545	-0.95680796450018
1.4515039911109	6.5829264157992	-0.56173008002516
1.3866216751759	7.5118935788728	-0.35488362790971
2.45	14.3	0
2.2168273415577	13.627179222019	0
2.4554693735383	13.497784276817	-0.39727655195048
3.032551925238	13.762466584345	0
6	11	-0.2857142857143
6	11	0
6.4843452951013	10.966514281357	0
6.2440599782187	11.234710090977	0
5.5	-0.5576923076923	0
5.247952850371	-0.29481663567353	0
5.5452342683804	-0.096294524539033	-0.49623355575102
5.1016398375367	-0.61489919294387	-0.38960315167385
2.3232496140345	4.0110297188843	-1.3835068702753
1.6586320571652	5.8268322896535	-1.5213554090482
0.71002746520551	3.976198472286	-1.505315421377
1.3296414347056	4.9089994064226	-0.82629172929831
5.6	14.3	0
4.6510156691765	14.3	-0.56274723813486
-0.090060726359069	5.5363033123106	-0.44581840212762
0	5	-0.2857142857143
-0.38456492153953	5.1805342841446	0
-0.7	5.0205501441189	-0.32507149572551
3	13	-0.2857142857143
5.1848675157348	3.2965660830064	0
5.4046165570399	2.9501485228537	-0.43988698776777
5.486289771732	3.4981838484395	0
5.4682750147717	3.0660382780841	0
0	8	0
0	8	-0.2857142857143
0.5178658825659	8.020802151125	0
0.25864598874121	7.6639427314904	0
6.7098208972434	7.2950601162224	-1.3269022195366
7.7	7.949747446039	-0.91833665053736
7.1577047253729	7.4844276204668	-0.64272934527953
4.5892004575887	3.5369189576522	-0.55981654583505
4.4420188491858	3.4660037233365	0
4.711527897636	3.7375259681419	0
4.3494632088922	3.8023533541114	0
4	6	-0.2857142857143
4	6	0
3.9913416390327	5.4988534517732	0
4.5093195747582	5.724109532591	0
1.4	14.3	0
1.5	13.55769230769	0
0.89284349994875	13.714781914708	0
1.2292962491126	13.670420041977	-0.37788942865261
4	9	-0.2857142857143
4	9	0
4.5502440226935	9.051086551406	0
4.2963154051231	9.3907765114078	0
4.5321110402369	7.5028925212181	-0.60552533206341
3.5085861108931	7.3893844432383	-0.64873189634878
4.0050480592533	7.4977657988521	0
4	8	-0.2857142857143
5.8961095330637	-1.3	-1.0125722125019
4.8982045728458	-1.3	-0.82217786726149
5.2296982103621	-0.31621891710017	-1.0679345669244
4.9010483556055	1.478997710586	0
4.5631533182214	1.9074133665015	-0.41231302454656
5.0320642355688	1.4518180616801	-0.36509190625555
3.5357179442866	0.46434418042464	-0.60031716899974
3.9407498163335	-0.4411178910574	-1.1087857494349
3.2826824657074	-0.47747544834602	-0.50866572047373
2.802260468126	-0.22902113419037	-1.4542342115515
1	13	0
1	13	-0.2857142857143
1.1191337005982	13.329221525091	0
1.4884720276527	13.02962190928	0
-0.21681247778723	8.5792000107362	0
-0.35118339610893	9.0917088673227	0
-0.7	9.0968147603684	-0.35256881313688
-0.7	8.9375	0
0.51662331659314	-0.40156299802931	-0.67799391089861
0.13474046208011	-1.3	-0.85683826964205
-0.16941603187845	-0.57512411281067	-1.4019543009948
6	13	-0.2857142857143
6	13	0
5.8068477026831	12.499749736815	0
6.1890713266052	12.67695534294	0
2.5984255358496	5.4578875982232	-0.67264342113488
2.2172109403706	5.4325217687574	0
2.4824672258873	4.9705265694472	0
2.6598112065826	5.3330483814808	0
-0.7	0.5146532048839	-0.51418317722913
-0.7	1.0492756199945	-0.88024243711367
-0.37698118088761	0.89350663208132	-0.33360419980628
-0.25096134668857	0.95145340086689	-0.90448711690516
6	2	-0.2857142857143
5.4002158317804	1.7678073061348	-0.50898482673054
5.8183999242367	2.5164331321023	-1.0840550371572
-0.13917028340788	5.5182991349521	0
0.31578338747353	5.7567158690792	0
6	12	0
6	12	-0.2857142857143
5.513035862904	11.994753403328	0
1.5285536174902	4.2362319729344	-0.43851980589517
0.57100063419133	12.499134596467	-0.56842257570583
1.2565986295401	13.42724014175	-1.149557674079
1.4486633887383	12.69302170761	-0.31714242590465
6.65	-1.3	0
6.903739311401	-1.3	-1.0953527719967
6.3980205255852	-0.38130956989248	-0.5855507841991
7.2175457166608	-0.5710098692386	-0.51938212652516
3	7	-0.2857142857143
3.5055774955602	6.7395375676091	-1.4094768265058
2.383927159844	7.4535505157878	-1.0620490471275
1	4	-0.2857142857143
1	4	0
1.2222221827385	4.2954008280594	0
0.82345085295407	4.2815033897546	0
5.6	-1.3	0
5.790373644402	-0.65252487431205	-0.38521635467031
[...]
CELL_DATA 5483
SCALARS Coverage double 1
LOOKUP_TABLE default
1.5051882156816 0.74993900390905 1.4078643400969 1.5722947014983 1.4474715157247 0.8789142478226 1.1376608271745 0.66985918374906 1.1134444332291 0.21783272022319 1.8419934174778 1.6619753274733 1.4979141690623 0.72902242172231 1.2517704393518 1.7915336274055 0.98022809650144 1.1452576280662 0.61929077693214 1.6545575822439 1.4375628485761 1.7093615529333 1.8969950249142 1.0712461891856 1.5970830673007 1.3949569652728 1.2443623377213 0.58982905480941 1.3441916583779 1.6578355351282 1.5694035776886 1.7541874821301 1.2129495786423 1.7830108154947 1.483061803712 1.7728419214548 -0.36498057933752 1.8049588426422 0.2752748901123 1.7518499141112 0.62662383974474 1.3729447137296 1.3921941138274 1.4646057579061 1.2871016557061 0.89370768506598 1.8256382453078 1.0386906873635 0.94557738439501 0.57429390871746 0.69468996628267 1.2822203877544 1.3830259208964 1.5295086100268 1.4035087025973 0.96030891192937 1.5026930993941 1.8689875238878 0.86229427821124 1.8399346051034 1.5240578627648 0.63494331884262 1.4273868718428 1.5251807308949 0.73177441868233 1.5863242351174 1.1468771668747 0.64082043953463 1.7156430912568 1.5721125511288 0.83155467866028 1.0925110766748 1.7823954337543 1.694075471643 1.5388030904514 1.0367164592521 0.62777929976232 1.2723146948255 1.9333476067177 0.6480272652882 1.1582682169368 0.80288483352212 1.5095756887406 1.2199207453195 1.5012797388308 1.0007545074236 0.61073331832059 1.8473751286996 1.7723455386042 1.5554929620392 1.1826531654209 1.2724897048998 1.2764351931536 1.2185604705191 1.4620998460739 1.6256300957084 1.5868642934219 0.97907346038751 1.644635247762 1.6759624758809 1.2975659820965 1.8046011493031 0.96404609544347 1.6011388737259 1.1227912106921 1.5448234185344 0.32160529906077 1.1359462251286 1.8126792853552 1.884019465691 1.7038289046281 1.2919479899557 1.4801836622922 1.4796103201709 1.1641051855872 0.74710916729222 0.95113791181248 1.0208140874527 1.5651892432436 1.2033398753892 0.95892323488204 1.6183540924337 1.2526861365884 0.43411546912521 1.2682340424727 1.7922403753035 1.0601138174149 1.8074632274834 1.3303026005302 1.5415321478882 1.5032956666997 -0.19730502274018 1.0707771287329 1.4210245246769 0.81958320685617 1.59281448501 -0.39583694800602 1.3564706995429 1.3485700614195 1.8660322717712 0.56314132520709 0.17419877370515 1.7924807176636 1.686735126105 1.5114557929765 1.4233697631737 0.87331891933613 0.70598471019086 0.93821329144703 0.59464001294303 0.37587299146374 1.8642638450242 0.820407556876 1.2082548789358 1.3996921962701 1.6377864541501 1.4669320878193 1.0545153630785 1.7371235679362 0.78626565422914 1.4311637073058 0.75570938141291 0.95645077933601 1.5910801416996 1.8727840868587 1.6491958916499 0.60052804621814 1.8153127137777 1.4367095010567 1.8042301098171 1.5908386506191 1.1768671928428 1.2880983759673 1.8407880201604 -0.073622780699448 1.8738108467519 1.9218767269048 1.7688779748009 1.6901990550662 0.18190763022042 1.5550297214839 0.41242234652958 1.1215399880796 -0.068874996300712 1.2132016645418 1.870085346969 1.4024242267495 1.5699558362872 1.8311751808068 1.3352041297795 1.8679741249602 1.3337920502387 0.74001677644257 1.6067926005608 1.2706913261245 1.0803878035814 1.6437194264502 1.5451271552067 1.4024183842669 1.8568750695597 0.5584870409813 1.9283012230628 1.4803254735446 1.5033364505108 1.9305175860795 1.6687905276002 1.7056420917564 1.4767639630875 1.0819550488313 -0.41950997371249 1.3794599822384 1.0761421547993 1.1795592665651 1.8955213785756 1.8643158716302 1.8755165194436 1.8468221101627 1.6046007113969 0.87002671653323 0.86183006840221 1.3762019264938 1.7375449483719 0.56446209308999 1.8904339796308 0.73134007016354 1.681524218263 1.5643013979361 0.85907611287836 1.925471784641 1.1615627986132 0.92166116194388 0.88318902678267 -0.12445148808015 1.8670932389564 1.4532353588982 1.1712142621354 0.57079294816684 1.7551512316778 1.7111778063305 1.5451723830206 1.768403591383 0.70626234751379 1.589125122965 0.97240781631286 1.5836813754705 1.8459648303411 1.3304653392357 1.5352197389127 0.54887723267928 1.6197701946565 0.69145836914286 1.6724815911013 0.47208806712561 0.22419246868214 0.036041142555002 0.45823613783287 0.88680711820654 1.8682547927927 1.3157997637963 1.8747448611628 1.0590379434721 1.0746799100015 1.5415437068713 1.3536507471859 1.8063457736461 1.8418443096927 1.4614618729147 1.8628064516461 1.5452970819726 0.74589181818594 1.8634389909252 1.8982013561267 1.5591809607273 1.4326337938257 1.8589481931717 1.5606883145489 1.8627377683013 1.5902561459597 1.589636557016 1.7297249281258 1.6549804013264 1.9491485737818 1.4448511105204 0.54450163657032 0.51143539009814 1.2789213752156 0.97248596279056 1.5778795760833 1.7522310730032 1.305367726316 1.5365016813627 1.8479672840766 1.724726428328 0.5816960639028 1.474951383591 1.7047738945345 0.72769069520415 0.30751233159959 0.85034282561556 0.50982524148266 0.45877176268717 1.5754297331057 1.4079422395791 1.0182169016706 0.82539430255226 1.1214800624872 1.627559553321 1.3077801336058 1.5386399579921 1.1126721584642 0.7483133803158 1.5918843394641 1.2764410944012 1.2573205273807 0.64575589544196 1.1715769372268 1.5271925594015 1.0842228711497 1.4494627670981 1.1700379324226 1.8279825677835 1.5629019449074 1.5411649913182 1.424784441021 1.9202467518275 1.2701705937422 1.6982584700386 1.5592940529621 0.47493121810731 -0.60638148325605 1.6373290757084 1.2085933804664 0.74134319747877 1.5429809269097 1.4985508463657 1.810579442833 1.8935642622007 0.96621362221856 -0.55993735106359 0.85826170546338 1.4163862399962 1.2274733257126 -0.22566342042581 1.053298059077 1.0583592380168 1.4199491739392 0.88957631993586 1.5685081609373 1.3766617210523 1.2518005594671 1.5356113527832 1.7182296869212 1.7766237251043 0.61115912859808 1.884637464459 1.0113429159663 0.1336451240133 1.3164813795032 1.7182027964754 0.50276497752571 1.3081793121317 1.3765043037716 0.72555919047418 1.3844095321109 1.7445396978311 1.4796540444974 0.88661114086232 1.760517208572 1.6795559815662 1.261852176013 1.3183429864579 0.97923336453309 1.504979619101 0.28359718418823 0.58980687152022 1.1549908078805 1.2974509985529 1.5269731863401 0.77018655014039 0.38068309761028 1.8278332252535 1.8893239968114 1.9043710995913 1.6081521217045 1.3614729101925 1.8774864939973 1.8274650057759 0.58969841080329 0.83903605801942 1.5277524241635 0.99972999221433 -0.21131098568863 1.5993191166162 1.4201525784246 1.3930764776064 1.5856662377741 1.6230279493246 1.4747219156514 1.4679343951018 1.5666922770043 1.0852568492778 0.8372119832778 0.88607942279307 1.7533778928963 1.9388581091304 1.2486496393534 1.3567245894295 1.7196676103087 1.8530620967043 1.2766800199853 1.504940440545 1.5194076615498 0.67044506408045 1.8345904219504 1.4255197697084 1.4507430899396 0.96359317137144 1.5655268266235 1.8384067827565 -0.36899264678053 1.5768072103508 1.5183548364282 0.53712302487827 1.4037209868798 1.3635662027204 1.0532310938603 0.21177060053128 0.14889494025066 1.6003824792523 0.32226788464338 1.6844548522117 1.3072888079521 1.8129846169001 0.89488743185427 1.7463512957957 1.4454623961037 1.7474534277374 1.8131782968128 1.4068676963883 1.1990751098623 1.4313730006007 1.5733538894194 1.2804144644986 1.7556786177864 1.8420325368414 1.5614812284525 1.1398430837902 1.2784670465086 1.1981173631873 1.2430374478199 0.93193275922287 0.69821815694816 1.4571347942618 1.5300915378808 1.8012914183064 1.4792968611438 1.8905340120888 1.4041016722211 1.6987199186334 1.4951492600508 1.8953579251562 1.2638608044558 0.99576176747509 1.6014297656821 1.9342166824172 1.5123893895433 0.87402124652 1.3493148692465 -0.23444346573401 1.8477131094995 0.46982416329392 1.8191404057109 1.4829148065234 0.24378185726575 1.5749296746568 1.3163533826882 1.0716950333712 1.5007704887349 1.7207965775453 1.8561485323435 1.4325383593427 1.471330490282 1.808269729322 1.636098410056 1.3768690973548 0.71570628320871 1.5959348837559 1.573029568203 1.5325918411464 0.66893572839332 0.47809504611422 1.4366253727331 1.2391539547412 1.5098435735885 0.84021769259532 1.8506822165961 1.6166203920379 0.82161726072213 1.9367929913234 1.4239328676077 1.0562516672654 0.63330617003577 0.83239913392998 0.98507116836454 0.53476881241189 1.6997838291103 1.6115624679722 -0.0076243957766012 1.3440111628975 1.1603157660237 1.4537006540568 1.3464973965814 1.5408934659873 1.5184830597746 1.8082925299346 1.0439297028014 1.6028417796515 0.76145768140802 1.0767696241265 1.3894243448379 1.6027936535777 1.0981992898157 1.7866508568081 1.6269205901947 1.3212675588515 1.6000671186398 1.4370667284351 1.6709304642509 1.5694111353567 1.621657080496 1.5856648451207 0.41799068371224 1.3165513195626 1.4419359852799 1.8273266954939 0.77351551226275 1.8009081940408 0.82309001711058 0.89786075177548 1.340781625905 1.7975878596016 0.87575443553707 -0.68824200044212 1.4309475493475 1.5432583210687 1.2732486842384 1.7019412370339 1.4753231579662 0.66694862672897 0.82202363323842 1.8473062975142 0.93554537953801 1.591504704939 0.8394860381996 0.62930136117115 1.3627521309134 0.56877490262931 1.5707348233896 1.607179371643 1.5315603613416 0.05659616778173 1.1219514253113 1.7011463400966 1.2023910266874 1.5409027860859 1.4329548243259 1.3897710437963 1.4342557935722 1.068726879615 1.5964809151293 1.5624381112055 1.0208248783918 1.0844571573668 0.25560276422524 1.9156653616781 0.92201883392718 0.33647089455896 1.7440446266897 1.3314209670085 1.6266320921416 1.7027347187159 1.6796168718401 0.65221579630158 0.85309859995012 1.5986082931642 1.3896912800733 1.6592903278776 1.1389660343722 1.4975702045942 0.78365734758589 1.0567000435383 0.86804824441796 1.5136302380264 1.2394422450985 0.67671807827688 1.8796396484017 1.6623193221786 -0.54449659706681 0.13571002955591 0.89363757382601 1.6515811229301 1.7597508445826 1.5539702068882 1.846257739265 1.1036203932732 1.452093640022 0.61715221894236 1.6849590608384 0.37733855246113 1.9017376652106 1.1084544466125 1.5693808465069 0.90166736904631 1.6114059724188 1.5018481785051 1.3552083921273 1.4355819776914 0.35664028116172 1.8642245044645 1.1427529571384 1.5006385604363 0.45595979671084 1.4715191307421 1.5822575604159 0.95524197361672 1.3611520706584 0.88145610716752 1.6971494330889 1.0999520479504 1.4755514900632 1.3806207918322 1.2672821577809 1.8700568678116 0.69404516627229 0.41366913848959 -0.52288157295233 1.7839730509871 1.1261446636625 1.0532310354155 0.75847273077566 1.8309787707191 -0.19763282550765 1.6237792805088 1.583745180648 1.0976011210071 1.0359808733739 1.7908445371195 1.8788868331093 1.4680052965299 1.5321900517706 1.7934004180731 1.6888469505411 1.8570285514823 0.73242541448275 1.4538550612086 1.8561904088642 2.0559235975713 0.70163995990935 1.457948577785 1.3704847914015 1.4704935773645 1.5816128685017 1.6096300045947 0.62397705688534 1.7446826963414 0.70462916039495 1.1353487895828 1.4742150060911 1.9319156940243 1.1287348980258 1.4155943295509 0.11569927981286 1.6838190377506 1.6664899296293 1.1478454289876 0.28008242366714 1.3985955151111 0.71587138449407 1.664524590144 1.1834677335561 1.5225244657418 -0.34342362435607 1.4913478415105 0.67040644612529 0.77195159891055 1.8591118391708 1.2736291200587 1.3222183941367 1.5391652936778 0.46371252921767 1.8733113978073 1.8460066695959 1.5213619891171 1.8323991264012 0.66300598992229 1.4795244768749 1.3713740379575 1.528837968612 1.0388223060674 1.7984293559579 0.50920866249187 1.2686102764966 1.3883085374027 1.182263078563 0.80567517504249 1.7806144739835 1.5631640727724 1.3911874306991 1.3733790546648 0.7086326098402 1.3932470609248 -0.40809445909543 1.5915224943308 1.0094437859218 -0.27671206244949 0.26115609753921 1.5455921513387 1.7442164655249 1.1411955342179 1.3813490964482 1.8719132347165 1.536301949859 1.0754377330179 1.6279426137912 0.91812412153094 1.1905789416818 1.4728539105202 0.97293520326062 0.34848565193505 1.4326382284599 1.4504910042502 1.861190635061 0.75884883802125 1.6688059802418 1.5390643448275 1.4581351839189 1.5715321875959 1.5930405988985 0.19300659025216 0.99502836653341 1.4229154538068 1.0369516267407 1.2395986807681 1.1323734216739 1.7654290802208 1.0557044444068 1.2503539324643 1.4635895134703 1.8009586193745 1.7408427148314 1.7533516631593 0.63972883347955 1.8706860607217 1.4772006310259 0.75648832973128 1.1883407887686 1.5000975995782 1.6245263552976 1.114040893139 0.83799251145411 1.4463427698038 1.5744157529371 1.9304968134685 1.4295506559417 1.3039454481431 0.79911863319778 1.4098924674792 1.567327701403 1.5867844292716 1.8248264091638 1.4144168701988 1.5512182676973 1.1314263774264 1.5468967553688 1.6010769916155 0.82711225883862 1.908901535489 1.3928866817872 0.57097455279075 1.6011062393571 0.88167792797688 1.5264131964946 1.2232092071006 1.7370782076073 1.2024901628739 1.2113085081154 1.5664645025744 1.1461346719391 1.6590861141947 1.8604048060143 1.3230736363521 1.6482209103574 1.4611799346682 0.48423307257125 1.0352724589829 1.792998944621 1.7310131723393 0.15039210886738 1.5950785076962 -0.5481185594387 1.3978557061783 1.7282198416928 1.3016632231061 0.61473080722765 1.7739733128673 -0.70473006641487 1.7389123635531 1.3258369599523 1.4372745162393 0.73357832579651 1.176721331639 1.3904065780541 1.0451551181405 1.4656651735124 1.0795780843948 1.7427302380338 0.77679048093186 1.4241445691009 1.5081214072885 1.2191550963053 1.3435184964268 1.5873701619556 1.5696649879086 1.467752699705 1.1002530649484 0.62178537130799 0.7550113950231 0.6313872739977 1.5345187510422 1.5757539166896 1.5904452955554 1.0708689535433 1.6777159966799 1.5528492744383 1.1046167489164 1.5929591145436 1.4434563814607 1.6037371686802 0.5113682569136 0.9627368371193 1.6067541850401 1.2700108668892 0.91378575469446 1.3102492846663 1.351250417629 1.0621339044416 1.2779673007033 1.5395621900575 1.5107413066117 1.2041937524831 1.867891776698 1.8301189089176 1.087986034024 1.3958553882045 0.72667733018213 1.340673864658 0.67038985608356 1.6473232943159 -0.19969028053106 0.68033579074372 1.5368048136523 -0.26965955628247 1.6700723615538 0.70848555709668 1.2878967851479 1.3154274854738 1.4342582149909 0.8194171445292 1.4092116637832 0.47642085623198 1.2496188822195 1.5740066282157 1.2713219134247 1.55046334759 1.5136118637463 0.97417579845118 0.80547891956655 0.43715085910952 0.78305036575849 0.54783570972572 1.8404419274937 0.45381458656971 0.92338178555432 1.5284593495647 1.298171122416 1.544361165368 1.7522534411334 1.5702374880027 1.6025120673678 1.238648693112 1.3938375887768 1.5205017691557 1.5420501636864 1.6914845340811 0.55736202110582 1.5818438046216 1.5705622891358 1.1771021517488 1.1512358683683 1.6584638075216 1.9096933917137 1.6033126667034 1.72225637453 0.66533358449346 1.2391200568414 1.8119978031597 1.6226402724324 1.2886981183179 1.6889804841607 1.0233516481189 1.3777097946772 0.41475317499954 1.7347808447098 1.303957236644 0.68254989177286 1.4661226662277 1.5238499977906 1.4155070068902 -0.1527016052326 1.2806853747293 1.5817269727878 1.8698553535761 0.32786599441685 1.7726802077815 0.81520419373477 0.22057856580324 1.2128233017854 -0.45808008300277 1.709732461903 1.9176344016353 1.4294988110003 1.0044058874182 1.5143700730192 1.730230739262 0.39648188168814 1.5862000349531 1.4922575200133 0.22711470997388 1.4491238274336 1.351340110448 1.6423889625105 0.95595632172509 0.53231099404291 1.4365562098357 0.61851747229995 1.2612324927642 1.8759755588823 1.359901553616 1.4980246664875 1.3238916026311 1.6186952474416 0.35630935018003 0.39886545582507 0.98052269163166 2.0111385128636 1.121571728979 0.62500757054431 1.532875936535 1.5784197767801 1.055600819345 1.3611924895644 1.2452037906815 1.3449340489766 1.5760446036447 1.4828527262871 0.74309805770749 1.2929510680166 1.3390974396046 1.6172398069441 1.8872271735298 0.60510974009142 0.88444221030545 0.48016407568891 1.5194970172226 1.3206211023739 0.79870740018761 0.98864253184824 1.7688684933657 0.50073606569716 1.1902831944939 1.060157029859 1.2868887657135 1.7448921406838 1.2423398069215 1.1516648470601 1.7949425879953 1.8866692344907 1.536051249747 1.7417217568971 1.6115986695303 1.2384331878708 0.79049380973508 0.75163629903671 1.4893144448347 1.066677938999 1.1898273568877 1.4925413322155 0.76445536868975 1.6506655130527 -0.14566252857215 1.8072642331427 1.6104192327172 1.3609608903361 0.53830412904083 0.61085987224158 1.7621866183232 -0.022441348453703 1.1522899357994 1.3178808861118 0.61027816179142 1.1567165297222 1.857914573531 1.8094842112725 1.5050168859018 0.66960005522457 1.7147870639979 1.7399944261255 0.32249454063188 0.91438839922411 1.6402434349007 1.0118355406378 1.5525580150019 1.5484757096432 0.94012556400263 1.3773547192247 1.2347015660931 0.7391662171987 0.64731418566176 0.62397281670875 1.7744518714902 1.8493076743266 2.4801899369723 1.5636302653906 0.88372841108708 1.4373749238534 1.4903948268872 0.93603590217897 1.511104746992 1.7169863792843 0.50231908804159 1.7471966686922 0.86836916632599 1.7439555250848 1.5364621412975 0.75780086583206 1.1146440341129 1.5114686950749 1.4054766463317 1.2395632167735 0.89429283091331 1.653383715111 1.8149815169054 0.85303701626001 1.6965316109892 1.7483319406336 0.46762920564768 1.9824823984494 1.4190638059706 1.1861549414571 1.0603466356784 1.1229118490361 1.5782838396233 1.4754267262106 1.71059865065 0.88573838560141 1.7754896313951 1.2976906382776 1.4318407173923 1.3319572231813 1.0363769913742 0.65689986711958 1.9028320066354 1.8169817201961 1.4366066609793 1.9193050863104 1.0628717634169 1.0337730639136 1.5126511069586 1.4994529088045 1.3562558215996 1.3577476113605 1.5030679567487 1.0496435319891 1.8067061698519 1.8591829748453 1.4081642535599 1.0406755780087 0.80255774466187 1.4180931564522 1.2640593402119 0.31982996358453 1.5635847681029 1.7236345664442 1.2854104458904 1.8625219536398 1.3548804527136 1.072916073522 1.8907382088419 1.5184262583218 0.62137206991811 0.7346136009972 1.2848066861652 1.8326612751679 1.182733801711 1.0280358220644 1.5312758670655 1.3181037920725 1.7196883263101 1.592907962885 1.2208564604266 1.356825900745 1.7375695662549 0.88910365554631 1.6003658048248 1.631408040453 1.8807767183783 1.4868374748504 1.2753660874301 1.7753981340085 1.7486483681996 1.8102495327979 1.521241741693 1.460797077603 1.4839184115169 1.6046064595099 1.4742668962681 0.93123262096965 0.034511929115384 0.89024946169823 0.78391818109258 0.76948439766951 1.5824674491579 1.238771556408 1.7720155845856 1.2387550312476 1.5299845933397 1.2720482495768 0.60533276558283 1.769507797585 1.5504164191497 1.6392235905663 -0.3791611798698 1.8528836224313 1.6137847050327 1.0351879079601 1.836178286939 1.1968955536512 0.99915583220524 1.7959306445723 1.3017129967905 0.59923953683817 1.4588555102382 1.1981203767546 1.099644001553 1.7859656874211 0.94365432499757 1.6141703384945 1.3203250626368 1.3397978430037 0.98393912887019 1.7842917319673 0.22482533908567 0.69595500913222 -0.49323079192926 1.3835690170515 1.4284642466891 0.78951696785777 1.0302171145087 1.5867390504114 1.6772397318716 1.4105479048443 1.6215170285761 0.88366225604324 0.86199824756792 1.8307572958418 1.7505743735403 1.4964589032378 1.5833574254883 1.4584942666917 1.4204832191891 0.60257268024325 1.3833548178708 1.6775787215566 -0.14645626248305 1.3402006843034 1.8821783280682 1.4422801434995 1.4147966573413 1.2457275718166 0.87293441168938 0.45142954571261 1.5489573803686 0.75552964695683 1.3797559810842 1.3967021539001 1.5446037383724 1.6054232737474 1.79399936164 1.8228712491326 0.3088478593365 1.4675654644653 1.1058965852682 0.43458632477065 1.8159761865215 -0.47888343618511 0.57851999503381 1.2705668426283 1.7126416221989 0.90265506080661 1.4958509485562 0.55800778432947 1.4365021592519 1.0271822896062 1.2852087984738 0.97496395660052 1.0268086380135 1.8902417486093 1.4639434346524 0.73550693543423 -0.095271859246109 1.0705390500846 1.3182466989621 1.555658444502 1.5080005773889 0.95641383537555 1.8448429072741 1.3353265419094 1.5047883112691 1.4531738131882 0.73657406023926 1.563153365231