# vtk DataFile Version 3.0
d-2__ created by libgimli-v1.5.0-1-g5991b6ac
ASCII
DATASET UNSTRUCTURED_GRID
POINTS 257 double
19.5	-0.25	0
19.643267391024	-0.375	0
19.690940791558	-0.19094079155751	0
22.625	-0.27380702240065	0
22.625	-0.13804348840204	0
22.518663902413	-0.18940103023301	0
22.458333333333	-0.087886572211468	0
22.416666666667	0	0
22.375	-0.13804348840204	0
22.291666666667	-0.087886572211468	0
22.333333333333	0	0
22.25	0	0
20.083333333333	0	0
20.041666666667	-0.13804348840203	0
20.125	-0.087886572211466	0
20.166666666667	0	0
20	0	0
20.708333333333	-0.13804348840203	0
20.666666666667	0	0
20.625	-0.087886572211466	0
20.208333333333	-0.07357428207177	0
20.75	0	0
20.791666666667	-0.087886572211464	0
20.333333333333	0	0
20.25	0	0
20.291666666667	-0.087886572211468	0
21.166666666667	0	0
21.208333333333	-0.07357428207177	0
21.25	0	0
20.416666666667	0	0
20.375	-0.13804348840204	0
20.458333333333	-0.087886572211468	0
21.291666666667	-0.087886572211468	0
21.333333333333	0	0
21.625	-0.13804348840204	0
21.518663902413	-0.18940103023301	0
21.625	-0.27380702240065	0
20.583333333333	0	0
22.916666666667	0	0
22.833333333333	0	0
22.875	-0.13804348840204	0
20.833333333333	0	0
20.875	-0.07357428207177	0
23.98747163413	-0.5056358037932	0
24.050519698408	-0.25547676721966	0
23.843533331918	-0.29816134131379	0
23.458333333333	-0.087886572211464	0
23.404607252882	-0.15094638411797	0
23.541666666667	-0.13804348840203	0
20.5	0	0
21.791666666667	-0.087886572211468	0
21.833333333333	0	0
21.75	0	0
21.231336097587	-0.18940103023302	0
21.125	-0.13804348840204	0
19.705488373266	-0.59091608366499	0
20.007921013115	-0.8717186506847	0
19.91135296792	-0.47048281487414	0
24.166666666667	0	0
24.208333333333	-0.087886572211464	0
24.25	0	0
21	0	0
20.916666666667	0	0
20.958333333333	-0.13804348840203	0
24.791666666667	-0.087886572211468	0
24.833333333333	0	0
24.75	0	0
21.041666666667	-0.087886572211464	0
21.083333333333	0	0
24.083333333333	0	0
24.125	-0.07357428207177	0
22.541666666667	-0.073574282071767	0
21.375	-0.13804348840204	0
21.416666666667	0	0
21.5	0	0
21.458333333333	-0.087886572211468	0
22.583333333333	0	0
22.666666666667	0	0
22.226291378505	-0.21877391554365	0
22.432011579996	-0.40775209656411	0
24.148002764253	-0.18940103023303	0
24.208717134119	-0.38392172835888	0
24.291666666667	-0.13804348840203	0
22.208333333333	-0.07357428207177	0
22.166666666667	0	0
22.125	-0.072182208352023	0
21.875	-0.13804348840204	0
20.237940586216	-0.15094638411797	0
21.916666666667	0	0
21.708333333333	-0.07357428207177	0
22.083333333333	0	0
22	0	0
22.041666666667	-0.13804348840203	0
20.190375288162	-0.21877391554366	0
21.958333333333	-0.087886572211464	0
20.541666666667	-0.073574282071767	0
20.571273919549	-0.15094638411796	0
20.317063962986	-0.25702488420529	0
21.541666666667	-0.073574282071767	0
22.5	0	0
23.583333333333	0	0
23.625	-0.087886572211466	0
22.791666666667	-0.087886572211468	0
20.203594889612	-0.40391444725954	0
21.583333333333	0	0
21.666666666667	0	0
22.75	0	0
22.958333333333	-0.087886572211464	0
23	0	0
23.041666666667	-0.13804348840203	0
22.708333333333	-0.07357428207177	0
23.083333333333	0	0
23.125	-0.087886572211466	0
23.166666666667	0	0
23.208333333333	-0.13804348840203	0
23.25	0	0
22.165334880767	-0.15260258505374	0
23.291666666667	-0.087886572211464	0
21.731336097587	-0.18940103023302	0
23.5	0	0
23.416666666667	0	0
23.333333333333	0	0
23.375	-0.07357428207177	0
23.666666666667	0	0
22.086941669094	-0.2859797646022	0
21.958333333333	-0.18219221742147	0
23.125	-0.18219221742148	0
23.228873378537	-0.27753669533404	0
23.708333333333	-0.07357428207177	0
23.041666666667	-0.23876614697008	0
22.958333333333	-0.18219221742147	0
23.833333333333	0	0
23.875	-0.13804348840204	0
23.916666666667	0	0
23.791666666667	-0.087886572211468	0
23.75	0	0
23.958333333333	-0.087886572211464	0
24	0	0
23.483730629652	-0.25702488420531	0
24.333333333333	0	0
24.375	-0.087886572211466	0
23.369620976373	-0.40603607246707	0
23.604159114629	-0.34842263547806	0
25.124752694808	-0.11296503030675	0
25	0	0
24.958333333333	-0.087886572211468	0
24.041666666667	-0.13804348840203	0
24.416666666667	0	0
24.458333333333	-0.07357428207177	0
24.875	-0.13804348840204	0
24.583333333333	0	0
24.541666666667	-0.13804348840203	0
24.625	-0.087886572211466	0
24.5	0	0
24.43533056908	-0.18940103023302	0
24.916666666667	0	0
24.385963434616	-0.36114994877356	0
24.708333333333	-0.07357428207177	0
24.666666666667	0	0
23.636111778917	-0.20065391017952	0
24.999752694808	-0.25100851870879	0
22.731336097587	-0.18940103023302	0
20.851997235747	-0.18940103023303	0
24.737940586216	-0.15094638411797	0
20.523708621495	-0.21877391554365	0
21.133853031742	-0.25547676721968	0
20.949480301592	-0.25547676721966	0
21.041666666667	-0.52911283384145	0
21.041666666667	-0.18219221742147	0
23.357041954828	-0.21877391554366	0
23.737940586216	-0.15094638411797	0
24.690375288162	-0.21877391554366	0
23.958333333333	-0.18219221742147	0
19.875	-0.11303967622539	0
19.75	0	0
20.650397296319	-0.25702488420526	0
21.292050467453	-0.38392172835888	0
21.414390113348	-0.63321254312708	0
21.469144028345	-0.36097200963104	0
21.848127708251	-0.28948918465343	0
22.848127708251	-0.28948918465343	0
22.726596951268	-0.4234584073117	0
23.731548923005	-0.26700761442393	0
24.817063962986	-0.25702488420529	0
20.031958747178	-0.33325463579056	0
20.523689393121	-0.44776195923934	0
23.184065504659	-0.43422319923747	0
23.545209981036	-0.61464357222601	0
24.552290248164	-0.29580321144285	0
25.25	0	0
20.800529041383	-0.37028063139366	0
23.130694908432	-0.28024272799092	0
22.907115884997	-0.43487734236883	0
25.5	-0.5	0
25.5	-0.25	0
25.356886217184	-0.375	0
25.308843572405	-0.19115642759521	0
25.5	0	0
21.681768476189	-0.55823447719905	0
23.041897355025	-0.3545575021244	0
22.950100433703	-0.28398118611486	0
23.746371622197	-0.43057135368151	0
23.045779100149	-0.5143168838031	0
21.615347366628	-0.83560735755964	0
21.971649595913	-0.56775148091581	0
22.235269600634	-0.41546210057925	0
22.346412380513	-0.73751448832674	0
22.007726950717	-0.98664640296265	0
20.322202955504	-0.72835150504623	0
23.798122080496	-0.68908130839227	0
24.703430397599	-0.40445925111313	0
24.914859484231	-0.44990795630246	0
23.247599241801	-0.70334449364573	0
25.053928463665	-0.58159990549132	0
25.221377875989	-0.67457110982012	0
25.225195424337	-0.49586438948828	0
24.530720924191	-0.4852517756918	0
24.323984230706	-0.57992151527177	0
19.84485407481	-1.2957460393421	0
19.743909551686	-0.8528010586154	0
24.746070739038	-0.72060716412098	0
23.604860290622	-0.8788438191921	0
23.043947453281	-1.1807973577914	0
23.54268225478	-1.3246684327942	0
23.849430697053	-0.99522786547226	0
24.043693421774	-0.75311160759413	0
22.849047319116	-0.69970565535729	0
25.000856094841	-0.87446921301307	0
25.5	-1	0
19.845623228308	-0.30002188546398	0
24.512369350266	-0.71824350459	0
24	-1.6666666666667	0
24.051778272566	-1.3024535658708	0
19.5	0	0
21.680522574649	-1.2514855461386	0
21.375	-1.6666666666667	0
21.75	-1.6666666666667	0
25.174325422113	-0.32450830281231	0
19.5	-0.5	0
20.747329141204	-0.71351083399284	0
19.5	-0.75	0
20.348572023727	-1.2023161679924	0
21.179597305363	-1.0673000334922	0
23.25	-1.6666666666667	0
19.5	-1	0
24.75	-1.6666666666667	0
25.013091550828	-1.3141602648437	0
24.625304590967	-1.106556793762	0
24.375	-1.6666666666667	0
24.189043391347	-0.96114657873573	0
22.064690440023	-1.391571216678	0
22.426745644615	-1.201505510398	0
19.5	-1.6666666666667	0
21	-1.6666666666667	0
20.25	-1.6666666666667	0
22.5	-1.6666666666667	0
25.5	-1.6666666666667	0
CELLS 429 1716
3	0	1	2	
3	3	4	5	
3	6	7	8	
3	9	10	11	
3	12	13	14	
3	14	15	12	
3	16	13	12	
3	17	18	19	
3	20	15	14	
3	7	10	8	
3	21	17	22	
3	23	24	25	
3	26	27	28	
3	29	30	31	
3	23	30	29	
3	28	32	33	
3	34	35	36	
3	19	18	37	
3	38	39	40	
3	22	41	21	
3	41	22	42	
3	43	44	45	
3	18	17	21	
3	46	47	48	
3	31	49	29	
3	50	51	52	
3	53	27	54	
3	55	56	57	
3	58	59	60	
3	61	62	63	
3	64	65	66	
3	67	68	61	
3	67	61	63	
3	69	70	58	
3	4	71	5	
3	72	73	33	
3	5	6	8	
3	74	73	75	
3	73	72	75	
3	76	4	77	
3	78	79	8	
3	80	81	82	
3	83	84	85	
3	50	86	51	
3	25	87	30	
3	86	88	51	
3	52	89	50	
3	90	91	92	
3	93	87	14	
3	94	92	91	
3	95	49	31	
3	9	8	10	
3	84	83	11	
3	19	95	96	
3	91	88	94	
3	25	30	23	
3	9	11	83	
3	97	30	87	
3	98	74	75	
3	99	71	76	
3	100	48	101	
3	33	32	72	
3	99	7	6	
3	41	42	62	
3	102	40	39	
3	71	99	6	
3	97	93	103	
3	104	34	105	
3	39	106	102	
3	74	98	104	
3	38	107	108	
3	107	109	108	
3	35	75	72	
3	106	110	102	
3	34	98	35	
3	28	27	32	
3	111	112	113	
3	109	111	108	
3	59	82	60	
3	113	114	115	
3	116	9	83	
3	114	117	115	
3	50	89	118	
3	119	120	46	
3	119	48	100	
3	110	106	77	
3	120	121	122	
3	89	52	105	
3	101	123	100	
3	124	92	125	
3	54	26	68	
3	114	126	127	
3	101	128	123	
3	129	109	130	
3	131	132	133	
3	134	131	135	
3	48	119	46	
3	115	117	121	
3	136	137	133	
3	47	138	48	
3	60	82	139	
3	82	140	139	
3	141	142	138	
3	143	144	145	
3	122	47	46	
3	146	137	136	
3	113	112	114	
3	134	132	131	
3	147	140	148	
3	149	65	64	
3	150	151	152	
3	150	153	151	
3	148	154	151	
3	147	148	153	
3	65	149	155	
3	59	58	70	
3	155	145	144	
3	82	81	156	
3	145	155	149	
3	146	69	137	
3	157	158	152	
3	154	140	82	
3	147	139	140	
3	101	48	159	
3	149	160	145	
3	102	110	161	
3	150	152	158	
3	42	22	162	
3	157	163	64	
3	5	71	6	
3	4	76	71	
3	85	84	90	
3	116	83	85	
3	96	31	164	
3	49	95	37	
3	15	20	24	
3	25	20	87	
3	14	13	93	
3	25	24	20	
3	165	166	167	
3	63	168	67	
3	54	68	67	
3	17	162	22	
3	63	62	42	
3	35	98	75	
3	34	104	98	
3	26	54	27	
3	63	42	162	
3	88	86	94	
3	125	94	86	
3	105	34	89	
3	118	89	34	
3	77	4	110	
3	161	110	4	
3	111	109	112	
3	126	112	109	
3	47	117	169	
3	120	122	46	
3	38	40	107	
3	130	107	40	
3	121	117	122	
3	117	114	169	
3	80	70	146	
3	123	128	135	
3	134	128	170	
3	159	48	138	
3	134	135	128	
3	163	152	171	
3	158	157	66	
3	154	148	140	
3	151	153	148	
3	69	146	70	
3	172	44	146	
3	9	78	8	
3	161	40	102	
3	90	92	85	
3	116	78	9	
3	92	94	125	
3	5	79	3	
3	164	31	30	
3	19	37	95	
3	173	16	174	
3	164	175	96	
3	17	19	96	
3	53	165	176	
3	53	32	27	
3	118	86	50	
3	175	17	96	
3	176	177	178	
3	118	36	179	
3	78	116	124	
3	180	3	181	
3	169	114	127	
3	114	112	126	
3	134	170	132	
3	133	132	136	
3	44	80	146	
3	146	136	172	
3	82	59	80	
3	152	151	171	
3	64	66	157	
3	80	59	70	
3	64	163	149	
3	170	101	159	
3	136	132	172	
3	85	92	116	
3	124	116	92	
3	97	164	30	
3	166	168	63	
3	14	87	20	
3	87	93	97	
3	117	47	122	
3	47	169	138	
3	101	170	128	
3	142	182	159	
3	132	45	172	
3	149	163	183	
3	31	96	95	
3	162	166	63	
3	184	93	13	
3	97	185	164	
3	156	154	82	
3	141	127	186	
3	142	141	187	
3	44	172	45	
3	152	163	157	
3	163	171	183	
3	103	93	184	
3	53	72	32	
3	154	188	151	
3	189	144	143	
3	185	175	164	
3	175	190	162	
3	118	179	86	
3	125	179	124	
3	109	107	130	
3	126	129	191	
3	161	180	40	
3	127	126	191	
3	169	141	138	
3	141	169	127	
3	125	86	179	
3	180	181	192	
3	193	194	195	
3	196	194	197	
3	149	183	160	
3	143	145	160	
3	167	176	165	
3	162	17	175	
3	198	178	177	
3	72	53	176	
3	118	34	36	
3	185	97	103	
3	126	109	129	
3	186	191	199	
3	180	130	40	
3	130	180	200	
3	161	4	3	
3	129	199	191	
3	138	142	159	
3	45	182	201	
3	130	200	129	
3	192	202	199	
3	202	186	199	
3	129	200	199	
3	142	187	201	
3	191	186	127	
3	180	192	200	
3	199	200	192	
3	180	161	3	
3	142	201	182	
3	54	67	168	
3	203	204	198	
3	79	5	8	
3	78	124	205	
3	182	170	159	
3	151	188	171	
3	185	190	175	
3	204	206	205	
3	201	43	45	
3	43	81	44	
3	207	206	204	
3	57	56	208	
3	44	81	80	
3	209	201	187	
3	35	72	178	
3	57	208	103	
3	13	16	173	
3	183	210	211	
3	141	212	187	
3	45	170	182	
3	213	214	215	
3	205	79	78	
3	216	156	217	
3	45	132	170	
3	196	197	189	
3	218	56	219	
3	178	198	36	
3	188	156	216	
3	220	211	210	
3	57	103	184	
3	204	179	198	
3	165	53	54	
3	221	222	223	
3	209	224	225	
3	43	217	81	
3	226	212	202	
3	214	227	228	
3	211	160	183	
3	210	171	188	
3	226	192	181	
3	193	215	214	
3	3	79	181	
3	205	206	79	
3	186	212	141	
3	212	186	202	
3	173	229	13	
3	167	177	176	
3	72	176	178	
3	206	226	181	
3	213	227	214	
3	217	230	216	
3	196	195	194	
3	231	232	223	
3	227	213	220	
3	206	181	79	
3	187	212	221	
3	173	174	2	
3	13	229	184	
3	174	233	2	
3	234	235	236	
3	196	189	143	
3	233	0	2	
3	160	237	143	
3	237	195	196	
3	1	0	238	
3	173	2	229	
3	177	203	198	
3	198	179	36	
3	239	190	185	
3	35	178	36	
3	192	226	202	
3	195	215	193	
3	188	216	210	
3	220	210	216	
3	213	237	211	
3	154	156	188	
3	124	179	204	
3	221	212	222	
3	240	219	55	
3	54	168	165	
3	196	143	237	
3	195	237	215	
3	55	1	238	
3	167	166	190	
3	2	1	229	
3	1	55	57	
3	190	166	162	
3	204	205	124	
3	241	208	56	
3	242	167	239	
3	223	222	243	
3	156	81	217	
3	160	211	237	
3	213	215	237	
3	183	171	210	
3	228	193	214	
3	219	244	218	
3	56	55	219	
3	184	229	57	
3	57	229	1	
3	220	213	211	
3	245	246	247	
3	230	220	216	
3	220	247	227	
3	248	247	232	
3	228	227	246	
3	55	238	240	
3	249	230	217	
3	247	249	232	
3	166	165	168	
3	221	209	187	
3	43	225	217	
3	209	43	201	
3	247	246	227	
3	190	239	167	
3	207	204	203	
3	208	185	103	
3	242	203	177	
3	207	250	251	
3	240	244	219	
3	252	218	244	
3	224	209	221	
3	217	225	249	
3	43	209	225	
3	241	242	239	
3	167	242	177	
3	253	242	241	
3	56	218	241	
3	212	226	222	
3	249	225	224	
3	234	250	207	
3	239	185	208	
3	231	223	243	
3	224	232	249	
3	252	254	218	
3	241	218	254	
3	253	241	254	
3	239	208	241	
3	206	207	251	
3	224	221	223	
3	223	232	224	
3	248	245	247	
3	234	207	203	
3	250	255	251	
3	251	226	206	
3	255	243	222	
3	249	247	230	
3	220	230	247	
3	203	242	234	
3	235	242	253	
3	255	222	251	
3	226	251	222	
3	232	231	248	
3	245	256	246	
3	228	246	256	
3	242	235	234	
3	234	236	250	
3	255	250	236	
CELL_TYPES 429
5 5 5 5 5 5 5 5 5 5 5 5 5 5 5 5 5 5 5 5 5 5 5 5 5 5 5 5 5 5 5 5 5 5 5 5 5 5 5 5 5 5 5 5 5 5 5 5 5 5 5 5 5 5 5 5 5 5 5 5 5 5 5 5 5 5 5 5 5 5 5 5 5 5 5 5 5 5 5 5 5 5 5 5 5 5 5 5 5 5 5 5 5 5 5 5 5 5 5 5 5 5 5 5 5 5 5 5 5 5 5 5 5 5 5 5 5 5 5 5 5 5 5 5 5 5 5 5 5 5 5 5 5 5 5 5 5 5 5 5 5 5 5 5 5 5 5 5 5 5 5 5 5 5 5 5 5 5 5 5 5 5 5 5 5 5 5 5 5 5 5 5 5 5 5 5 5 5 5 5 5 5 5 5 5 5 5 5 5 5 5 5 5 5 5 5 5 5 5 5 5 5 5 5 5 5 5 5 5 5 5 5 5 5 5 5 5 5 5 5 5 5 5 5 5 5 5 5 5 5 5 5 5 5 5 5 5 5 5 5 5 5 5 5 5 5 5 5 5 5 5 5 5 5 5 5 5 5 5 5 5 5 5 5 5 5 5 5 5 5 5 5 5 5 5 5 5 5 5 5 5 5 5 5 5 5 5 5 5 5 5 5 5 5 5 5 5 5 5 5 5 5 5 5 5 5 5 5 5 5 5 5 5 5 5 5 5 5 5 5 5 5 5 5 5 5 5 5 5 5 5 5 5 5 5 5 5 5 5 5 5 5 5 5 5 5 5 5 5 5 5 5 5 5 5 5 5 5 5 5 5 5 5 5 5 5 5 5 5 5 5 5 5 5 5 5 5 5 5 5 5 5 5 5 5 5 5 5 5 5 5 5 5 5 5 5 5 5 5 5 5 5 5 5 5 5 5 5 5 5 5 5 5 5 5 5 5 5 5 5 5 5 5 5 5 5 5 5 5 
CELL_DATA 429
SCALARS Coverage double 1
LOOKUP_TABLE default
1.5323762239294 2.6113024281866 3.006418396236 3.295152033126 2.3517632091192 2.6040453265917 2.7249754052772 2.7117402420462 2.54597832045 3.1591098862706 2.8210814538438 2.8759824752691 3.125681018578 2.6025338098476 2.6922879922357 3.0586333934429 2.5649354314571 2.838185818139 3.156442274562 3.3183221710108 2.9870734712791 2.1832063390301 3.2571670463428 2.7756746019429 2.9675115057735 3.5497943511136 2.5850699304911 1.2730136273315 3.2584661040631 3.1956580661657 2.9933358555116 3.3703765522592 3.0705278025399 3.1556887090959 2.7918891951239 3.072785575433 2.7677839162259 3.3610066123136 3.0235738549618 3.1394789083497 2.4853554916445 2.4896654346582 2.9639215037979 3.097487378488 2.2810480453757 3.1248626990472 3.088786215175 3.483676892529 2.235417197742 2.9559343882047 2.55451152525 2.9784909799412 3.2434057695993 2.4749116065697 3.3537346132997 2.5017960896861 2.8101004525269 2.1835164902927 3.030859707397 3.4008567012924 3.0290971009206 2.7763760276778 3.3772634036765 3.084959180074 2.9533756142682 2.8930296535729 1.8866528960607 3.085948909486 3.3145826957872 3.3418160496837 3.3821457249017 3.0401904402573 2.9266004774407 2.8662469962939 2.7285285115039 2.639540439485 3.1555632754221 3.2338950763496 2.8925685188042 3.5091070985361 2.7308279458072 2.9851796744392 2.9418600976335 3.3926029190221 3.3614073819204 3.364597911076 3.2394330123885 3.5681380227037 3.199002504932 2.681547530788 2.976197923073 2.6181683364552 3.1408535966153 2.6314265262843 3.1217214884454 3.4063259488307 2.9163324186713 3.5113049489327 3.4348172785734 2.6177696530365 3.3860264253603 2.9172716540353 2.2820141201948 2.6506882375761 2.9063897355271 2.9960303524245 3.0289324138678 3.012334916014 2.8158985989658 2.4877589215064 2.790899799903 3.0838566286714 2.5262626164559 3.1068566765927 2.560547146342 3.0084483591719 2.9786396508875 2.3172070193536 2.3376639598773 3.4216716039314 2.8348401724431 2.7627493646625 2.9326636243785 2.8046260228556 2.3929889681589 2.7596380376811 2.9268161270107 2.7161537528321 2.5919943253664 2.7916988955136 3.0209153816631 3.0093744027451 2.8452186723846 2.3133839022028 2.9417510746996 2.9003214092314 2.3219827531561 2.1487567029969 2.4780538420837 2.2440399303783 2.6942869465327 2.9580616432244 2.6416238920708 2.8535709298971 2.8322456505445 2.9289163518526 2.7607460551888 2.6084880362775 2.9582739796631 2.750023209281 3.1103116097468 2.8077582026976 3.0003803558453 2.7737156922622 2.9124235093692 2.7048007830895 2.7423575626756 3.1129028967929 3.0371590838901 2.8684635420977 3.1541772947083 2.7981840593106 2.7638903189591 3.4255403164493 2.8625275940742 2.5964835241047 3.058288816773 2.6115880838014 3.0933507151512 2.6332528369744 2.5931042078819 3.0276879572961 2.5791739750557 2.7392201228644 2.7463540852615 3.0049573871129 2.6629333833963 2.8880353060553 2.4236887035083 2.3601967573974 2.6644089061379 2.4738686735869 2.2423931968852 2.5004317260955 2.3172219421833 2.5495149346161 2.8247338042061 2.3730431579775 2.0592999866796 2.4971077094273 2.5588036472267 2.3479526567323 2.6194051418426 2.8277156216145 2.7861845653813 3.0274665468923 2.5313620910362 2.7870578442715 2.7752166137617 2.5831257702565 2.863557099853 2.7245310870797 2.5137727690892 2.8190769622722 2.7453181563372 2.9206249826627 2.7680032979246 2.1480000843372 2.5541967756439 2.416805311095 2.0475131118207 2.9371248514336 2.5542097303295 3.0419945724281 2.3963062786825 2.4953411169553 2.306606489209 2.4513677677371 2.4612134690749 1.9160813304458 2.0034163670928 2.5121119194673 2.2646506760679 2.0968493689143 2.4126622333611 2.831878657355 2.3660922667724 1.8044194550251 2.6902519904503 2.4011669815503 2.6565388927801 2.0825688370403 2.288644861184 2.6285083551428 2.5002648340033 2.7368508374765 2.4901669471592 2.5871508780496 2.490567903647 2.3920724559279 2.4071570292296 2.5711129723618 2.2597180600408 1.4737404541152 1.6496927695427 2.2537445118982 2.3874764884852 2.1510401228677 2.4531877006455 2.0119323327572 2.4221445964153 2.6027485538756 1.8366075321406 2.5809963986339 2.2937996490491 2.6480684453361 2.4896697100966 2.6037034680945 2.3947646637177 2.4024929780694 2.2277247838246 2.5122517066095 2.1864969770695 2.183554521734 2.4028299724729 2.0559052182223 2.3489882849987 2.3495854682437 2.295751078829 2.4820868143812 2.216960611254 2.7649371064076 1.84305161604 2.5583511096192 2.375836111903 2.5794914986226 2.4644534738278 2.0694775892637 1.9709395470119 2.0876544571043 2.1302069000361 1.6959324491878 1.2929489049991 2.3600743381519 1.8888975364279 2.6719454440321 1.5192580651929 2.2623426617545 1.947857721601 1.9614749303233 2.4406871693439 1.4852922319674 2.3035859242843 1.9057368699293 2.5284637900721 1.8310568421318 0.9520461920234 2.2164178616069 2.0641729035037 1.7505268544569 1.6535776815621 2.1336000416273 2.463159071461 1.2704729807078 1.5757287882028 1.9407024447959 1.9123460164332 1.1571803640856 2.0290325243944 2.2089796208948 2.0759688371895 1.4218830416838 2.2826619295223 2.0599334938825 2.0780035569177 2.0336218609738 1.9371546531963 1.9455282399171 2.3533662251013 1.9236351292376 1.3879628844651 1.7057089355355 1.63821654153 0.88902926143166 1.4166684063861 2.0640403682892 1.7479521105421 1.9410330176313 1.860611749363 1.7466408618901 0.79981432965923 2.0676226982093 1.5750124298478 2.0936580553986 1.7529203788548 1.3803314325931 1.8470167961824 1.76625868403 2.2880693301277 1.8178508759985 2.4334483762124 2.0379658044174 1.4738468198803 2.008996621557 1.7646747750754 1.7318810701991 2.2603425875448 2.2609504199597 1.5533577433949 1.0581317052923 2.5881056265088 2.0017402306277 1.6699626666066 1.2935038448606 2.1478635638033 1.6382708498926 1.404006640422 2.3266568050734 2.1852349534873 1.1160196354265 1.543982785751 1.0238302923662 2.0074997568717 1.9580180552523 1.6441484486226 2.1323316814143 1.1923617645347 0.84873661509942 1.0833144116392 1.6543433172684 1.5723455437574 1.6179824414667 0.8237425994001 1.6114454089601 1.2767653811938 0.85633844127297 1.0066729992952 1.1418114845519 1.5268327730723 1.1053554615099 2.4408350139215 1.7216644312845 1.7611841917547 1.9166098197783 1.0312808255897 1.8665108957056 1.6410982538298 1.631519306548 1.5178718219481 1.1955934953083 0.91873869536743 0.63594450925896 1.5467314686806 1.5594272186372 1.7545189054922 1.1787659563519 1.6271654303324 0.88063640154169 0.90454002548931 1.6416534185335 1.4141852734504 1.1530670949104 1.5555337367921 0.83449294633825 1.2187157966614 0.58377134408226 0.74330049909917 0.67632136876924 1.247218892864 1.4641728234241 1.3297922279244 1.1219985033508 0.74864060863816 1.343158515541 1.002046262028 1.6045284480734 0.93812046619437 1.2928158783672 1.3651831330259 1.2639648277024 0.81606429718727 1.083883973572 1.4279090809746 0.72076763413807 0.65251381163776 0.71242815394386 0.96770383318836 0.92087382901309 0.8413687431819 
SCALARS Marker double 1
LOOKUP_TABLE default
0 1 2 3 4 5 6 7 8 9 10 11 12 13 14 15 16 17 18 19 20 21 22 23 24 25 26 27 28 29 30 31 32 33 34 35 36 37 38 39 40 41 42 43 44 45 46 47 48 49 50 51 52 53 54 55 56 57 58 59 60 61 62 63 64 65 66 67 68 69 70 71 72 73 74 75 76 77 78 79 80 81 82 83 84 85 86 87 88 89 90 91 92 93 94 95 96 97 98 99 100 101 102 103 104 105 106 107 108 109 110 111 112 113 114 115 116 117 118 119 120 121 122 123 124 125 126 127 128 129 130 131 132 133 134 135 136 137 138 139 140 141 142 143 144 145 146 147 148 149 150 151 152 153 154 155 156 157 158 159 160 161 162 163 164 165 166 167 168 169 170 171 172 173 174 175 176 177 178 179 180 181 182 183 184 185 186 187 188 189 190 191 192 193 194 195 196 197 198 199 200 201 202 203 204 205 206 207 208 209 210 211 212 213 214 215 216 217 218 219 220 221 222 223 224 225 226 227 228 229 230 231 232 233 234 235 236 237 238 239 240 241 242 243 244 245 246 247 248 249 250 251 252 253 254 255 256 257 258 259 260 261 262 263 264 265 266 267 268 269 270 271 272 273 274 275 276 277 278 279 280 281 282 283 284 285 286 287 288 289 290 291 292 293 294 295 296 297 298 299 300 301 302 303 304 305 306 307 308 309 310 311 312 313 314 315 316 317 318 319 320 321 322 323 324 325 326 327 328 329 330 331 332 333 334 335 336 337 338 339 340 341 342 343 344 345 346 347 348 349 350 351 352 353 354 355 356 357 358 359 360 361 362 363 364 365 366 367 368 369 370 371 372 373 374 375 376 377 378 379 380 381 382 383 384 385 386 387 388 389 390 391 392 393 394 395 396 397 398 399 400 401 402 403 404 405 406 407 408 409 410 411 412 413 414 415 416 417 418 419 420 421 422 423 424 425 426 427 428 
SCALARS Resistivity double 1
LOOKUP_TABLE default
125.80248966814 82.039271436667 86.428045411777 71.8011990551 84.349690086385 88.606451037035 86.891420150071 61.902017382331 85.73219205409 91.530010396114 68.237432462255 68.499209873068 42.026916470627 66.144881621721 69.345386083576 74.246043540645 85.587017775879 53.371171584493 119.33366357736 52.080829240466 50.001064425174 166.03295372522 78.059546544599 86.225583720878 63.066110721568 66.562186190922 48.364723387858 182.9111829835 41.020185856615 38.823581174644 68.512174133056 112.47905525129 77.207862188549 47.0654385198 80.443069200909 162.9119949494 83.344321000764 203.54774018675 168.43922691873 90.274178922991 82.793044375211 115.2110348201 75.564356660804 60.87709463793 71.748083264659 44.864995634048 78.319964509243 204.36486877752 76.390207292975 84.406628799265 52.393110680089 79.672379704864 63.071135448188 52.082533116696 38.511468734423 69.805679584027 61.233990079355 70.788175377631 99.855800887685 83.249748841034 100.71201574103 91.737517731785 81.737816324343 42.289540914914 94.556693941086 78.584607073048 80.803832263521 48.889212122593 83.326487738028 44.329769312754 123.65883703635 87.847069155042 116.19101902283 78.156233684612 74.455307041144 49.34608898835 74.646765951865 55.588600294012 87.593883943734 118.4627652306 62.81402470745 104.72043767418 82.508803008652 69.915689631563 96.549957191553 82.775500998734 75.261972029463 71.27148704302 112.77599839357 79.612075945234 68.91692877065 94.995143957412 112.04558544542 86.300738458353 40.690005298378 40.688783515425 79.720650308462 82.870539362911 43.792456509751 97.522325334611 201.76500759681 134.40203815166 123.60073533777 87.165184979497 83.625032328341 56.587226218038 91.243559712393 46.358595101757 87.926590296708 66.559242275258 222.67215700996 188.00630670738 88.561805323656 78.294524204456 55.295145173582 46.348738100205 66.212275258323 123.54938240519 62.740686593926 61.376609159411 265.02727804518 102.77068441141 111.56311472189 98.956500143466 75.948101488068 78.258357865603 290.09504645623 59.651322851705 140.05100595994 79.137929661729 84.476908928031 99.915803634271 71.327641501748 58.546869332487 45.528662959945 87.268382336947 75.32532407728 78.63472828468 76.723780647085 76.978144284033 74.50592223407 85.315836041192 67.975015641345 44.52015830122 95.410562930157 50.369045852033 49.373569435993 58.199939177067 45.674919090815 67.028195485204 64.620478991649 80.175364255905 83.701853272428 78.990980895441 64.974734083883 75.654384079493 103.21594634673 75.053238025253 118.90919775813 100.85905810913 81.585930207348 109.04587104537 69.961585680139 118.86831211542 80.432243471178 102.26949706234 75.965108157011 159.98279206496 259.67245989225 87.319921924829 98.981830985846 56.47964544397 96.482260149209 74.349483789605 84.669349911974 122.8871701676 66.312350943243 77.643696927405 88.019376146259 63.684357126524 48.695781770265 75.710628257634 62.5592813883 57.676273998937 62.58212712609 49.720924426696 78.86551536749 61.860587180222 101.03362130356 98.503377453888 74.065853726809 91.326485624309 106.69662552375 86.357518665866 71.626006804342 48.052772620062 97.22316452167 72.925639764686 87.114595116529 166.40531705042 145.76809518151 63.972511407824 96.56281647718 101.42323938747 70.252086612402 84.538888567306 76.458530239748 67.716700678915 71.757521381281 78.845540577201 75.031416977945 89.626451746397 105.94490873573 97.44248118154 124.73575375325 96.620442835598 97.106903182324 53.304821126127 69.49671096303 81.298141426484 72.140795468551 105.12838006261 106.99136714144 140.62142642285 120.16779264631 193.1176220583 118.7565735736 86.510418053557 63.326956550006 97.849022211936 110.78452137888 70.336599080333 75.585344920971 88.76347650742 89.518618408961 90.954516260084 87.105530755561 85.674115547879 92.531840658435 114.28614129146 110.63229437676 82.328858159057 96.256620140969 137.43058434294 129.16036286365 86.792245658295 86.743083051683 78.975593130017 68.677013784896 124.17974526799 62.781521922246 88.935003823253 85.586584789297 81.845701670999 94.087714341569 91.778323815536 89.91990668399 80.504182949273 89.201085460374 116.23761243722 148.98416254373 87.769692885005 98.577388608421 99.615202631511 88.893116733637 158.24873625981 97.06529453623 91.76636286489 91.737510281033 84.324167327479 145.21800567282 74.160961278326 182.34570179491 85.573402455219 89.864795918789 114.90321604628 120.99439665571 82.1297165466 144.82703823239 178.59135385255 170.12876586185 216.36422868835 175.5758545178 129.39419351799 188.67561756669 91.713364072365 128.44408787397 76.858800590298 105.52138853114 140.53646108445 120.16514334841 151.21470330483 94.976993348442 147.50891513369 97.226584991911 124.75989408824 248.85723814506 108.76603933032 119.74794875162 120.98552452733 104.40678169056 133.61341743926 56.030448168307 255.98563699254 239.63532505282 186.78973219823 126.72902068583 180.40733639568 95.884487701191 113.51868530166 111.56888521371 154.0277994857 97.857845098681 118.70184905206 116.8573373097 111.69861601927 85.01942394641 111.45190870757 77.108683945303 139.22981951861 164.20434643359 173.70879286612 131.66601019489 298.54705906334 161.27051159664 118.39538835917 177.61601780261 92.125924136962 87.600753723372 105.68775991623 408.32132036386 117.67605251152 117.17164221998 101.26646572997 127.44839341109 144.48760583615 96.802683148262 175.29697467249 113.35003115668 110.84407877734 93.193013861538 109.54710486702 142.32716014859 119.05837258758 132.05746822143 123.4672284904 102.64094224245 109.63685035038 201.02729245845 214.90463353723 64.935332419855 115.40927522702 135.37660729235 162.9070676033 88.695422303905 115.35826210647 155.73986743005 77.7784425871 111.67005114245 217.30452779694 184.51619067179 299.09355058492 153.27250254859 105.07355391236 136.2798282632 109.42350274589 168.52512126928 261.16589883295 215.69923043651 104.14748871674 123.84016828131 133.46143009685 239.96801516752 164.26798560681 189.51836845967 278.11693889569 208.0953766047 188.88864463495 212.23893004448 261.00770860852 70.100403862866 199.58735785582 222.39911566908 202.46810290212 213.98230179826 121.80205740268 244.34597035969 115.00431990104 224.1094275104 325.52271108125 238.86030523517 290.37982531422 233.7504488936 231.99650710961 226.21020051792 259.26386485606 175.30688098015 361.39506283962 263.27703028261 178.66020702016 249.43434228754 355.16772264978 139.55401005523 309.08471919084 267.11063260889 309.97396775144 314.4493573434 356.28379283805 206.24725186978 254.49539654113 259.13475756901 279.92024053088 263.40317062908 317.91061166626 345.57647227017 207.86692595097 318.49623699525 224.17033807135 192.75293932342 323.01660439649 399.98525526207 305.3675837349 231.23528783421 292.8249224841 236.28705191297 225.64118104316 396.23146419025 391.83949303521 383.28338643368 
SCALARS Resistivity_(log10) double 1
LOOKUP_TABLE default