# vtk DataFile Version 3.0
d-2__ created by libgimli-v1.5.0-1-g5991b6ac
ASCII
DATASET UNSTRUCTURED_GRID
POINTS 10201 double
0	-10	0
0.5	-10	0
0.5	-9.9	0
0	-9.9	0
1	-10	0
1	-9.9	0
1.5	-10	0
1.5	-9.9	0
2	-10	0
2	-9.9	0
2.5	-10	0
2.5	-9.9	0
3	-10	0
3	-9.9	0
3.5	-10	0
3.5	-9.9	0
4	-10	0
4	-9.9	0
4.5	-10	0
4.5	-9.9	0
5	-10	0
5	-9.9	0
5.5	-10	0
5.5	-9.9	0
6	-10	0
6	-9.9	0
6.5	-10	0
6.5	-9.9	0
7	-10	0
7	-9.9	0
7.5	-10	0
7.5	-9.9	0
8	-10	0
8	-9.9	0
8.5	-10	0
8.5	-9.9	0
9	-10	0
9	-9.9	0
9.5	-10	0
9.5	-9.9	0
10	-10	0
10	-9.9	0
10.5	-10	0
10.5	-9.9	0
11	-10	0
11	-9.9	0
11.5	-10	0
11.5	-9.9	0
12	-10	0
12	-9.9	0
12.5	-10	0
12.5	-9.9	0
13	-10	0
13	-9.9	0
13.5	-10	0
13.5	-9.9	0
14	-10	0
14	-9.9	0
14.5	-10	0
14.5	-9.9	0
15	-10	0
15	-9.9	0
15.5	-10	0
15.5	-9.9	0
16	-10	0
16	-9.9	0
16.5	-10	0
16.5	-9.9	0
17	-10	0
17	-9.9	0
17.5	-10	0
17.5	-9.9	0
18	-10	0
18	-9.9	0
18.5	-10	0
18.5	-9.9	0
19	-10	0
19	-9.9	0
19.5	-10	0
19.5	-9.9	0
20	-10	0
20	-9.9	0
20.5	-10	0
20.5	-9.9	0
21	-10	0
21	-9.9	0
21.5	-10	0
21.5	-9.9	0
22	-10	0
22	-9.9	0
22.5	-10	0
22.5	-9.9	0
23	-10	0
23	-9.9	0
23.5	-10	0
23.5	-9.9	0
24	-10	0
24	-9.9	0
24.5	-10	0
24.5	-9.9	0
25	-10	0
25	-9.9	0
25.5	-10	0
25.5	-9.9	0
26	-10	0
26	-9.9	0
26.5	-10	0
26.5	-9.9	0
27	-10	0
27	-9.9	0
27.5	-10	0
27.5	-9.9	0
28	-10	0
28	-9.9	0
28.5	-10	0
28.5	-9.9	0
29	-10	0
29	-9.9	0
29.5	-10	0
29.5	-9.9	0
30	-10	0
30	-9.9	0
30.5	-10	0
30.5	-9.9	0
31	-10	0
31	-9.9	0
31.5	-10	0
31.5	-9.9	0
32	-10	0
32	-9.9	0
32.5	-10	0
32.5	-9.9	0
33	-10	0
33	-9.9	0
33.5	-10	0
33.5	-9.9	0
34	-10	0
34	-9.9	0
34.5	-10	0
34.5	-9.9	0
35	-10	0
35	-9.9	0
35.5	-10	0
35.5	-9.9	0
36	-10	0
36	-9.9	0
36.5	-10	0
36.5	-9.9	0
37	-10	0
37	-9.9	0
37.5	-10	0
37.5	-9.9	0
38	-10	0
38	-9.9	0
38.5	-10	0
38.5	-9.9	0
39	-10	0
39	-9.9	0
39.5	-10	0
39.5	-9.9	0
40	-10	0
40	-9.9	0
40.5	-10	0
40.5	-9.9	0
41	-10	0
41	-9.9	0
41.5	-10	0
41.5	-9.9	0
42	-10	0
42	-9.9	0
42.5	-10	0
42.5	-9.9	0
43	-10	0
43	-9.9	0
43.5	-10	0
43.5	-9.9	0
44	-10	0
44	-9.9	0
44.5	-10	0
44.5	-9.9	0
45	-10	0
45	-9.9	0
45.5	-10	0
45.5	-9.9	0
46	-10	0
46	-9.9	0
46.5	-10	0
46.5	-9.9	0
47	-10	0
47	-9.9	0
47.5	-10	0
47.5	-9.9	0
48	-10	0
48	-9.9	0
48.5	-10	0
48.5	-9.9	0
49	-10	0
49	-9.9	0
49.5	-10	0
49.5	-9.9	0
50	-10	0
50	-9.9	0
0.5	-9.8	0
0	-9.8	0
1	-9.8	0
1.5	-9.8	0
2	-9.8	0
2.5	-9.8	0
3	-9.8	0
3.5	-9.8	0
4	-9.8	0
4.5	-9.8	0
5	-9.8	0
5.5	-9.8	0
6	-9.8	0
6.5	-9.8	0
7	-9.8	0
7.5	-9.8	0
8	-9.8	0
8.5	-9.8	0
9	-9.8	0
9.5	-9.8	0
10	-9.8	0
10.5	-9.8	0
11	-9.8	0
11.5	-9.8	0
12	-9.8	0
12.5	-9.8	0
13	-9.8	0
13.5	-9.8	0
14	-9.8	0
14.5	-9.8	0
15	-9.8	0
15.5	-9.8	0
16	-9.8	0
16.5	-9.8	0
17	-9.8	0
17.5	-9.8	0
18	-9.8	0
18.5	-9.8	0
19	-9.8	0
19.5	-9.8	0
20	-9.8	0
20.5	-9.8	0
21	-9.8	0
21.5	-9.8	0
22	-9.8	0
22.5	-9.8	0
23	-9.8	0
23.5	-9.8	0
24	-9.8	0
24.5	-9.8	0
25	-9.8	0
25.5	-9.8	0
26	-9.8	0
26.5	-9.8	0
27	-9.8	0
27.5	-9.8	0
28	-9.8	0
28.5	-9.8	0
29	-9.8	0
29.5	-9.8	0
30	-9.8	0
30.5	-9.8	0
31	-9.8	0
31.5	-9.8	0
32	-9.8	0
32.5	-9.8	0
33	-9.8	0
33.5	-9.8	0
34	-9.8	0
34.5	-9.8	0
35	-9.8	0
35.5	-9.8	0
36	-9.8	0
36.5	-9.8	0
37	-9.8	0
37.5	-9.8	0
38	-9.8	0
38.5	-9.8	0
39	-9.8	0
39.5	-9.8	0
40	-9.8	0
40.5	-9.8	0
41	-9.8	0
41.5	-9.8	0
42	-9.8	0
42.5	-9.8	0
43	-9.8	0
43.5	-9.8	0
44	-9.8	0
44.5	-9.8	0
45	-9.8	0
45.5	-9.8	0
46	-9.8	0
46.5	-9.8	0
47	-9.8	0
47.5	-9.8	0
48	-9.8	0
48.5	-9.8	0
49	-9.8	0
49.5	-9.8	0
50	-9.8	0
0.5	-9.7	0
0	-9.7	0
1	-9.7	0
1.5	-9.7	0
2	-9.7	0
2.5	-9.7	0
3	-9.7	0
3.5	-9.7	0
4	-9.7	0
4.5	-9.7	0
5	-9.7	0
5.5	-9.7	0
6	-9.7	0
6.5	-9.7	0
7	-9.7	0
7.5	-9.7	0
8	-9.7	0
8.5	-9.7	0
9	-9.7	0
9.5	-9.7	0
10	-9.7	0
10.5	-9.7	0
11	-9.7	0
11.5	-9.7	0
12	-9.7	0
12.5	-9.7	0
13	-9.7	0
13.5	-9.7	0
14	-9.7	0
14.5	-9.7	0
15	-9.7	0
15.5	-9.7	0
16	-9.7	0
16.5	-9.7	0
17	-9.7	0
17.5	-9.7	0
18	-9.7	0
18.5	-9.7	0
19	-9.7	0
19.5	-9.7	0
20	-9.7	0
20.5	-9.7	0
21	-9.7	0
21.5	-9.7	0
22	-9.7	0
22.5	-9.7	0
23	-9.7	0
23.5	-9.7	0
24	-9.7	0
24.5	-9.7	0
25	-9.7	0
25.5	-9.7	0
26	-9.7	0
26.5	-9.7	0
27	-9.7	0
27.5	-9.7	0
28	-9.7	0
28.5	-9.7	0
29	-9.7	0
29.5	-9.7	0
30	-9.7	0
30.5	-9.7	0
31	-9.7	0
31.5	-9.7	0
32	-9.7	0
32.5	-9.7	0
33	-9.7	0
33.5	-9.7	0
34	-9.7	0
34.5	-9.7	0
35	-9.7	0
35.5	-9.7	0
36	-9.7	0
36.5	-9.7	0
37	-9.7	0
37.5	-9.7	0
38	-9.7	0
38.5	-9.7	0
39	-9.7	0
39.5	-9.7	0
40	-9.7	0
40.5	-9.7	0
41	-9.7	0
41.5	-9.7	0
42	-9.7	0
42.5	-9.7	0
43	-9.7	0
43.5	-9.7	0
44	-9.7	0
44.5	-9.7	0
45	-9.7	0
45.5	-9.7	0
46	-9.7	0
46.5	-9.7	0
47	-9.7	0
47.5	-9.7	0
48	-9.7	0
48.5	-9.7	0
49	-9.7	0
49.5	-9.7	0
50	-9.7	0
0.5	-9.6	0
0	-9.6	0
1	-9.6	0
1.5	-9.6	0
2	-9.6	0
2.5	-9.6	0
3	-9.6	0
3.5	-9.6	0
4	-9.6	0
4.5	-9.6	0
5	-9.6	0
5.5	-9.6	0
6	-9.6	0
6.5	-9.6	0
7	-9.6	0
7.5	-9.6	0
8	-9.6	0
8.5	-9.6	0
9	-9.6	0
9.5	-9.6	0
10	-9.6	0
10.5	-9.6	0
11	-9.6	0
11.5	-9.6	0
12	-9.6	0
12.5	-9.6	0
13	-9.6	0
13.5	-9.6	0
14	-9.6	0
14.5	-9.6	0
15	-9.6	0
15.5	-9.6	0
16	-9.6	0
16.5	-9.6	0
17	-9.6	0
17.5	-9.6	0
18	-9.6	0
18.5	-9.6	0
19	-9.6	0
19.5	-9.6	0
20	-9.6	0
20.5	-9.6	0
21	-9.6	0
21.5	-9.6	0
22	-9.6	0
22.5	-9.6	0
23	-9.6	0
23.5	-9.6	0
24	-9.6	0
24.5	-9.6	0
25	-9.6	0
25.5	-9.6	0
26	-9.6	0
26.5	-9.6	0
27	-9.6	0
27.5	-9.6	0
28	-9.6	0
28.5	-9.6	0
29	-9.6	0
29.5	-9.6	0
30	-9.6	0
30.5	-9.6	0
31	-9.6	0
31.5	-9.6	0
32	-9.6	0
32.5	-9.6	0
33	-9.6	0
33.5	-9.6	0
34	-9.6	0
34.5	-9.6	0
35	-9.6	0
35.5	-9.6	0
36	-9.6	0
36.5	-9.6	0
37	-9.6	0
37.5	-9.6	0
38	-9.6	0
38.5	-9.6	0
39	-9.6	0
39.5	-9.6	0
40	-9.6	0
40.5	-9.6	0
41	-9.6	0
41.5	-9.6	0
42	-9.6	0
42.5	-9.6	0
43	-9.6	0
43.5	-9.6	0
44	-9.6	0
44.5	-9.6	0
45	-9.6	0
45.5	-9.6	0
46	-9.6	0
46.5	-9.6	0
47	-9.6	0
47.5	-9.6	0
48	-9.6	0
48.5	-9.6	0
49	-9.6	0
49.5	-9.6	0
50	-9.6	0
0.5	-9.5	0
0	-9.5	0
1	-9.5	0
1.5	-9.5	0
2	-9.5	0
2.5	-9.5	0
3	-9.5	0
3.5	-9.5	0
4	-9.5	0
4.5	-9.5	0
5	-9.5	0
5.5	-9.5	0
6	-9.5	0
6.5	-9.5	0
7	-9.5	0
7.5	-9.5	0
8	-9.5	0
8.5	-9.5	0
9	-9.5	0
9.5	-9.5	0
10	-9.5	0
10.5	-9.5	0
11	-9.5	0
11.5	-9.5	0
12	-9.5	0
12.5	-9.5	0
13	-9.5	0
13.5	-9.5	0
14	-9.5	0
14.5	-9.5	0
15	-9.5	0
15.5	-9.5	0
16	-9.5	0
16.5	-9.5	0
17	-9.5	0
17.5	-9.5	0
18	-9.5	0
18.5	-9.5	0
19	-9.5	0
19.5	-9.5	0
20	-9.5	0
20.5	-9.5	0
21	-9.5	0
21.5	-9.5	0
22	-9.5	0
22.5	-9.5	0
23	-9.5	0
23.5	-9.5	0
24	-9.5	0
24.5	-9.5	0
25	-9.5	0
25.5	-9.5	0
26	-9.5	0
26.5	-9.5	0
27	-9.5	0
27.5	-9.5	0
28	-9.5	0
28.5	-9.5	0
29	-9.5	0
29.5	-9.5	0
30	-9.5	0
30.5	-9.5	0
31	-9.5	0
31.5	-9.5	0
32	-9.5	0
32.5	-9.5	0
33	-9.5	0
33.5	-9.5	0
34	-9.5	0
34.5	-9.5	0
35	-9.5	0
35.5	-9.5	0
36	-9.5	0
36.5	-9.5	0
37	-9.5	0
37.5	-9.5	0
38	-9.5	0
38.5	-9.5	0
39	-9.5	0
39.5	-9.5	0
40	-9.5	0
40.5	-9.5	0
41	-9.5	0
41.5	-9.5	0
42	-9.5	0
42.5	-9.5	0
43	-9.5	0
43.5	-9.5	0
44	-9.5	0
44.5	-9.5	0
45	-9.5	0
45.5	-9.5	0
46	-9.5	0
46.5	-9.5	0
47	-9.5	0
47.5	-9.5	0
48	-9.5	0
48.5	-9.5	0
49	-9.5	0
49.5	-9.5	0
50	-9.5	0
0.5	-9.4	0
0	-9.4	0
1	-9.4	0
1.5	-9.4	0
2	-9.4	0
2.5	-9.4	0
3	-9.4	0
3.5	-9.4	0
4	-9.4	0
4.5	-9.4	0
5	-9.4	0
5.5	-9.4	0
6	-9.4	0
6.5	-9.4	0
7	-9.4	0
7.5	-9.4	0
8	-9.4	0
8.5	-9.4	0
9	-9.4	0
9.5	-9.4	0
10	-9.4	0
10.5	-9.4	0
11	-9.4	0
11.5	-9.4	0
12	-9.4	0
12.5	-9.4	0
13	-9.4	0
13.5	-9.4	0
14	-9.4	0
14.5	-9.4	0
15	-9.4	0
15.5	-9.4	0
16	-9.4	0
16.5	-9.4	0
17	-9.4	0
17.5	-9.4	0
18	-9.4	0
18.5	-9.4	0
19	-9.4	0
19.5	-9.4	0
20	-9.4	0
20.5	-9.4	0
21	-9.4	0
21.5	-9.4	0
22	-9.4	0
22.5	-9.4	0
23	-9.4	0
23.5	-9.4	0
24	-9.4	0
24.5	-9.4	0
25	-9.4	0
25.5	-9.4	0
26	-9.4	0
26.5	-9.4	0
27	-9.4	0
27.5	-9.4	0
28	-9.4	0
28.5	-9.4	0
29	-9.4	0
29.5	-9.4	0
30	-9.4	0
30.5	-9.4	0
31	-9.4	0
31.5	-9.4	0
32	-9.4	0
32.5	-9.4	0
33	-9.4	0
33.5	-9.4	0
34	-9.4	0
34.5	-9.4	0
35	-9.4	0
35.5	-9.4	0
36	-9.4	0
36.5	-9.4	0
37	-9.4	0
37.5	-9.4	0
38	-9.4	0
38.5	-9.4	0
39	-9.4	0
39.5	-9.4	0
40	-9.4	0
40.5	-9.4	0
41	-9.4	0
41.5	-9.4	0
42	-9.4	0
42.5	-9.4	0
43	-9.4	0
43.5	-9.4	0
44	-9.4	0
44.5	-9.4	0
45	-9.4	0
45.5	-9.4	0
46	-9.4	0
46.5	-9.4	0
47	-9.4	0
47.5	-9.4	0
48	-9.4	0
48.5	-9.4	0
49	-9.4	0
49.5	-9.4	0
50	-9.4	0
0.5	-9.3	0
0	-9.3	0
1	-9.3	0
1.5	-9.3	0
2	-9.3	0
2.5	-9.3	0
3	-9.3	0
3.5	-9.3	0
4	-9.3	0
4.5	-9.3	0
5	-9.3	0
5.5	-9.3	0
6	-9.3	0
6.5	-9.3	0
7	-9.3	0
7.5	-9.3	0
8	-9.3	0
8.5	-9.3	0
9	-9.3	0
9.5	-9.3	0
10	-9.3	0
10.5	-9.3	0
11	-9.3	0
11.5	-9.3	0
12	-9.3	0
12.5	-9.3	0
13	-9.3	0
13.5	-9.3	0
14	-9.3	0
14.5	-9.3	0
15	-9.3	0
15.5	-9.3	0
16	-9.3	0
16.5	-9.3	0
17	-9.3	0
17.5	-9.3	0
18	-9.3	0
18.5	-9.3	0
19	-9.3	0
19.5	-9.3	0
20	-9.3	0
20.5	-9.3	0
21	-9.3	0
21.5	-9.3	0
22	-9.3	0
22.5	-9.3	0
23	-9.3	0
23.5	-9.3	0
24	-9.3	0
24.5	-9.3	0
25	-9.3	0
25.5	-9.3	0
26	-9.3	0
26.5	-9.3	0
27	-9.3	0
27.5	-9.3	0
28	-9.3	0
28.5	-9.3	0
29	-9.3	0
29.5	-9.3	0
30	-9.3	0
30.5	-9.3	0
31	-9.3	0
31.5	-9.3	0
32	-9.3	0
32.5	-9.3	0
33	-9.3	0
33.5	-9.3	0
34	-9.3	0
34.5	-9.3	0
35	-9.3	0
35.5	-9.3	0
36	-9.3	0
36.5	-9.3	0
37	-9.3	0
37.5	-9.3	0
38	-9.3	0
38.5	-9.3	0
39	-9.3	0
39.5	-9.3	0
40	-9.3	0
40.5	-9.3	0
41	-9.3	0
41.5	-9.3	0
42	-9.3	0
42.5	-9.3	0
43	-9.3	0
43.5	-9.3	0
44	-9.3	0
44.5	-9.3	0
45	-9.3	0
45.5	-9.3	0
46	-9.3	0
46.5	-9.3	0
47	-9.3	0
47.5	-9.3	0
48	-9.3	0
48.5	-9.3	0
49	-9.3	0
49.5	-9.3	0
50	-9.3	0
0.5	-9.2	0
0	-9.2	0
1	-9.2	0
1.5	-9.2	0
2	-9.2	0
2.5	-9.2	0
3	-9.2	0
3.5	-9.2	0
4	-9.2	0
4.5	-9.2	0
5	-9.2	0
5.5	-9.2	0
6	-9.2	0
6.5	-9.2	0
7	-9.2	0
7.5	-9.2	0
8	-9.2	0
8.5	-9.2	0
9	-9.2	0
9.5	-9.2	0
10	-9.2	0
10.5	-9.2	0
11	-9.2	0
11.5	-9.2	0
12	-9.2	0
12.5	-9.2	0
13	-9.2	0
13.5	-9.2	0
14	-9.2	0
14.5	-9.2	0
15	-9.2	0
15.5	-9.2	0
16	-9.2	0
16.5	-9.2	0
17	-9.2	0
17.5	-9.2	0
18	-9.2	0
18.5	-9.2	0
19	-9.2	0
19.5	-9.2	0
20	-9.2	0
20.5	-9.2	0
21	-9.2	0
21.5	-9.2	0
22	-9.2	0
22.5	-9.2	0
23	-9.2	0
23.5	-9.2	0
24	-9.2	0
24.5	-9.2	0
25	-9.2	0
25.5	-9.2	0
26	-9.2	0
26.5	-9.2	0
27	-9.2	0
27.5	-9.2	0
28	-9.2	0
28.5	-9.2	0
29	-9.2	0
29.5	-9.2	0
30	-9.2	0
30.5	-9.2	0
31	-9.2	0
31.5	-9.2	0
32	-9.2	0
32.5	-9.2	0
33	-9.2	0
33.5	-9.2	0
34	-9.2	0
34.5	-9.2	0
35	-9.2	0
35.5	-9.2	0
36	-9.2	0
36.5	-9.2	0
37	-9.2	0
37.5	-9.2	0
38	-9.2	0
38.5	-9.2	0
39	-9.2	0
39.5	-9.2	0
40	-9.2	0
40.5	-9.2	0
41	-9.2	0
41.5	-9.2	0
42	-9.2	0
42.5	-9.2	0
43	-9.2	0
43.5	-9.2	0
44	-9.2	0
44.5	-9.2	0
45	-9.2	0
45.5	-9.2	0
46	-9.2	0
46.5	-9.2	0
47	-9.2	0
47.5	-9.2	0
48	-9.2	0
48.5	-9.2	0
49	-9.2	0
49.5	-9.2	0
50	-9.2	0
0.5	-9.1	0
0	-9.1	0
1	-9.1	0
1.5	-9.1	0
2	-9.1	0
2.5	-9.1	0
3	-9.1	0
3.5	-9.1	0
4	-9.1	0
4.5	-9.1	0
5	-9.1	0
5.5	-9.1	0
6	-9.1	0
6.5	-9.1	0
7	-9.1	0
7.5	-9.1	0
[...]
CELL_DATA 10000
SCALARS Coverage double 1
LOOKUP_TABLE default
-0.27249285470214 -0.2446699580632 -0.21822602187869 -0.19321741040692 -0.16969414194677 -0.14769471387714 -0.12720926527166 -0.10807000452158 -0.090302424545543 -0.073938488702414 -0.058857076485328 -0.045041246121532 -0.0323825830232 -0.020838801270578 -0.01026409101442 -0.00052351287185243 0.0082578258654461 0.016340071829913 0.023629858950054 0.030295755344124 0.036344447768243 0.04191856165443 0.046969774874435 0.051665719892752 0.0559992112551 0.059901312506239 0.063546506660949 0.066781385983265 0.069699999379301 0.072423056143067 0.074962654332428 0.077379214657899 0.079763429477696 0.082033110623889 0.084090881397532 0.086061077236289 0.088134152938255 0.090123821847376 0.091996384269404 0.093799148053226 0.095439870688466 0.096865616293858 0.098066953057831 0.099074825849287 0.099975550520596 0.10072327079649 0.10104421098007 0.10107712229046 0.10083893573399 0.10030806449403 0.099603596078164 0.098856832097692 0.098142489026011 0.097454396501121 0.096951227867295 0.096516694860143 0.095999610030243 0.095387904548434 0.094684647623082 0.093845149131066 0.092828139437278 0.091595496412695 0.090278881373196 0.088610422081892 0.086525557782241 0.083992201859632 0.081053984017431 0.077568091358523 0.073594910851364 0.069051987989103 0.06392336478756 0.05812971153706 0.051796817900709 0.044968103194735 0.037631329322597 0.029794872197526 0.021405779373134 0.012531375453559 0.0031880214596107 -0.0065888515487544 -0.016927614170819 -0.027660615138177 -0.039004160402903 -0.050958564510236 -0.063467063154282 -0.076413557451957 -0.089878304134155 -0.10386470017846 -0.11822132199541 -0.13346167986147 -0.14955928154158 -0.16637039566938 -0.18387935961443 -0.20227404307012 -0.22175768153725 -0.24246981505321 -0.26428001750566 -0.28700144180263 -0.31056973618112 -0.33500314748118 -0.26107059332404 -0.23291720666551 -0.20617279959806 -0.18088420509704 -0.15711299937048 -0.13488854915755 -0.11420228193899 -0.094899706665325 -0.076984577616943 -0.060476606429014 -0.04529411503443 -0.031374780658689 -0.018630211340267 -0.0070078817496911 0.0036389342742242 0.013429967022185 0.022282670175091 0.030405447074894 0.037742915722698 0.044440384484734 0.050534179364061 0.056132396956023 0.061220732251871 0.065951855639407 0.070294700318825 0.074241024213016 0.077881177841465 0.081135370759351 0.084045412985796 0.086782506980884 0.089315703336666 0.091731181382506 0.094109681792658 0.096371464131292 0.098425967629413 0.10039492806026 0.10245698139114 0.104448439845 0.10631841313457 0.10810421714527 0.10974523086884 0.11116933045284 0.11235412414782 0.11334202195765 0.1142381626088 0.11497527001581 0.11529782269593 0.1153318951474 0.11509841767069 0.11457660458322 0.11388253145752 0.11314276401632 0.11244685671836 0.11177863849719 0.11130121663499 0.11091111699883 0.11044052924889 0.10987023906858 0.10921547772914 0.1084481995338 0.1074775698338 0.1063013192824 0.10502822985909 0.10339837875145 0.10135156724965 0.098861858475642 0.095947548097731 0.092485602694007 0.088514979621782 0.083975219384865 0.078824147553744 0.073026922268343 0.066661079312637 0.059794686437095 0.052421423564532 0.044549517474097 0.036098616517748 0.027152641011613 0.017755515482284 0.0078997775027213 -0.0025059255239212 -0.013323481809243 -0.0247570164728 -0.036815649691564 -0.049424898514342 -0.06247927778269 -0.076068118591559 -0.090164647646739 -0.10465801481971 -0.12003769085246 -0.13628047148883 -0.15326668191757 -0.1709454567675 -0.18952243362982 -0.20921708389483 -0.2301573967531 -0.25222724437445 -0.27521597455229 -0.29906368878337 -0.32378236923262 -0.24956668414772 -0.22107362613156 -0.19402351889883 -0.16845177659385 -0.14442937046209 -0.12197873332232 -0.10108791597134 -0.081620402545019 -0.063556613002754 -0.046907000247934 -0.031619700681796 -0.01760128814788 -0.0047689426377813 0.006930069487194 0.017652985736284 0.027494693881872 0.036412201246708 0.044578852802522 0.051958488280496 0.05869483272503 0.064829349423331 0.070457705693505 0.075577922893887 0.080342767339908 0.084700821594085 0.088681945133241 0.092328207100734 0.095594253701154 0.098498062421101 0.10124700661608 0.10378123452896 0.1061935720689 0.10856271252764 0.11081762500803 0.11286605645256 0.11483880363141 0.11688878364883 0.11888044072492 0.12074710252374 0.12252150160879 0.12415563940972 0.12557791867837 0.1267481521401 0.12771803777701 0.12860046106127 0.12933193054281 0.12965570923034 0.12969468408728 0.12946050493857 0.12894574627192 0.12826211818544 0.12753358277142 0.12685729660474 0.12621648109816 0.1257569471289 0.12540604505708 0.12498495758793 0.12446072546082 0.12385916091446 0.12316557370523 0.12224407971463 0.12112145179416 0.11989075184489 0.11830710845517 0.11629653575212 0.11385236116608 0.11096269849841 0.10752551570773 0.10356079023106 0.099021100874819 0.093845931523514 0.088043240318643 0.081646796541507 0.074746102851746 0.067339121061035 0.059426314782007 0.050911978876763 0.041900912808658 0.032438935298546 0.022510778695091 0.012038702164575 0.0011369940743729 -0.010387893014655 -0.022551678403723 -0.035256156638231 -0.048426470768427 -0.062129728322446 -0.076345880600126 -0.090976424114444 -0.10648779149861 -0.12288460576986 -0.1400422755648 -0.15789664218722 -0.17665520474098 -0.19656385978151 -0.21773778939913 -0.24007058024792 -0.2633279011804 -0.28746150543848 -0.31247342144465 -0.23798031593184 -0.20914084847959 -0.18177825077145 -0.15591954539398 -0.131642691298 -0.10896371962277 -0.087866944721793 -0.068231335015917 -0.050017400603986 -0.033227487900091 -0.017835469760293 -0.0037181574062863 0.0092014396175149 0.020975485358302 0.031775986678546 0.041670375152373 0.050646401545101 0.058860482770624 0.066280988886743 0.073058260123486 0.079232192940523 0.084891426178164 0.090043841700202 0.094838533331923 0.09921376301676 0.10322510073175 0.10688459181917 0.11015749413589 0.11306193443388 0.11581962660111 0.11836001686511 0.1207619224185 0.1231219710474 0.1253721289408 0.12741668663559 0.12939112954606 0.13143132666202 0.13341757066714 0.13528125581716 0.13704454766027 0.13867668553742 0.14009197372899 0.14124642944895 0.14219686581141 0.14306673335243 0.14378923832378 0.14412242934234 0.14416346547946 0.14392841508451 0.14341582329878 0.14274751054814 0.14203242533205 0.14137313012252 0.1407624283719 0.14031891334882 0.14000719748125 0.13963993352918 0.13916394059732 0.13861403851437 0.13799441613612 0.13712415030223 0.13605925412232 0.13487095309239 0.13333992636744 0.13136405655015 0.12896215868162 0.12609784559516 0.12268987031189 0.11872740008114 0.11419147084065 0.10899419362354 0.10318304742136 0.096752326587796 0.089823855462623 0.082381370222518 0.074428117020814 0.065853164676495 0.056772623943616 0.047242287111095 0.037247048781811 0.026705563125731 0.015718758202181 0.0041098043057956 -0.0081597802819863 -0.020960237597844 -0.034246541865826 -0.048066951418951 -0.062406479753374 -0.077175836518681 -0.092815008587101 -0.10937026710753 -0.12669483418994 -0.1447318038495 -0.16367368450359 -0.18379481741355 -0.20520813028128 -0.22780757706942 -0.25134147537148 -0.2757633227645 -0.30107263653692 -0.22630947626022 -0.19711850665971 -0.16943774650573 -0.14328640145618 -0.11875174615215 -0.095841814519212 -0.074539873882229 -0.054733030085132 -0.036367336837271 -0.019438598330402 -0.0039401838206612 0.010273888819534 0.023280625254775 0.035129742186626 0.046006497731429 0.055954356794229 0.064989643643753 0.073249373941117 0.08071112419524 0.087529864288172 0.093744648486006 0.099434216256825 0.10461946721778 0.10944297567172 0.11383514214001 0.11787864453759 0.12155210447662 0.12482880569046 0.12773767004819 0.13050175686816 0.13304832230417 0.13544265655287 0.13778982537444 0.14003312303067 0.14208290774076 0.1440561178374 0.14608055728148 0.14806667396929 0.14992226019329 0.15167426167036 0.15330998895811 0.15471124542078 0.15584809890629 0.15678681974209 0.157644427841 0.15834922684195 0.15869873300681 0.15873669371974 0.15849914951985 0.15799532682871 0.1573408876034 0.15663870936431 0.15599698905527 0.15541583512481 0.15498602847708 0.15472125091409 0.15440964965712 0.15397695878715 0.15348406383268 0.15293630664696 0.15211765050381 0.15111938456695 0.14997287539247 0.14849415436037 0.14655682437388 0.14419228822752 0.1413578586112 0.1379773563187 0.13402081908746 0.12948763924228 0.12427230746413 0.11844226234487 0.11198129577283 0.10502289088116 0.097549837905961 0.089551669449654 0.080921283173236 0.07177069265185 0.062175685482839 0.052105448392744 0.041495856476261 0.030428244917547 0.018736433385261 0.0063637169574856 -0.0065373212963104 -0.01993581336294 -0.033880126386145 -0.04834360067304 -0.063246524014236 -0.079021436159695 -0.095736822506666 -0.1132311250621 -0.13144937811624 -0.1505784724189 -0.17091439252327 -0.19257062675555 -0.21543933971526 -0.23925757296321 -0.2639688981713 -0.28957917875776 -0.21455608919643 -0.18500630782494 -0.15700113441512 -0.13055273964349 -0.10575552408452 -0.082613885775771 -0.06110619958288 -0.041124139145417 -0.022606576759678 -0.0055404096303182 0.010065029904964 0.024378603120697 0.037470373659832 0.049393623782427 0.06034500191227 0.070348076580763 0.07944256239794 0.087746504913558 0.09525366260354 0.10211183051338 0.10836911950565 0.11409051025786 0.11930886497518 0.12415864733898 0.12857248090007 0.13264524591892 0.13633194995687 0.13960815617438 0.14252477479145 0.1453019044931 0.14784893902414 0.15023698518087 0.15256854201352 0.15480553195204 0.15686129120499 0.15883303891129 0.1608450330644 0.16282853646531 0.16467219374103 0.16641387203908 0.16805249258697 0.16943999146056 0.17056138887784 0.17148798698646 0.17232937618128 0.17301724186694 0.17338008511336 0.17341561271858 0.17317676194117 0.17268429706407 0.17204078058304 0.17135482393988 0.17072518123375 0.1701784189147 0.1697669404751 0.16954635439891 0.16929099056135 0.16890652017667 0.16846953899955 0.1679975558403 0.1672301851968 0.16629816566251 0.16519945601476 0.1637716252455 0.16187466890274 0.15954649287435 0.15674122625389 0.15338765807333 0.14944465548884 0.144906335894 0.13967838028395 0.13382679957265 0.12733869645478 0.12034787238398 0.11284668054901 0.10480086326053 0.096120104744 0.086894890025603 0.077233553630696 0.067088629067695 0.056413126053581 0.045262955064575 0.033488804483629 0.021020293157092 0.0080125009485108 -0.0054973225068841 -0.019568278071903 -0.034148553643216 -0.049193433021709 -0.065105990216963 -0.081983327987391 -0.099648746327951 -0.11804953368742 -0.137363446394 -0.15792027679869 -0.17982443771695 -0.20296682228983 -0.22707431881666 -0.25208103155987 -0.277996327415 -0.20271826097174 -0.17280402329646 -0.1444686958414 -0.11771882284429 -0.092653451722031 -0.06927970550482 -0.047563651601739 -0.027403766192554 -0.0087336292781936 0.0084675400468933 0.024182103463902 0.038594116075598 0.051772266874606 0.06376793200256 0.074792837568825 0.084851331344634 0.094006861583475 0.10235368160213 0.10990802992528 0.11680472075721 0.12310842129919 0.12885977647746 0.13411145845704 0.13898597924441 0.14342331196335 0.14752425695137 0.15122230370923 0.15450251446115 0.15743023063596 0.16021531310123 0.16276434601842 0.1651424812834 0.16746115033817 0.16969331052277 0.17175074194446 0.1737230164252 0.17572588538697 0.17770490846761 0.17953714943792 0.18127241687627 0.18290720323138 0.1842858808537 0.18539153512041 0.18629968029081 0.18712231086424 0.18780202831321 0.18817363318764 0.18820830897243 0.18796847913782 0.1874796392921 0.18684897592369 0.18617740715345 0.1855630654217 0.18505502615211 0.18466774691146 0.18448453709615 0.18428235515123 0.18395433055665 0.18357750570923 0.18318028818869 0.18247657140983 0.18159495588877 0.18054609794046 0.17917253789009 0.17731685524188 0.17503238174891 0.17225632302355 0.16892002025965 0.16499250192198 0.16045755803016 0.15521821053114 0.149343577774 0.14282361808854 0.1357956106672 0.12827215773788 0.12017794471026 0.11144489864421 0.10215445261084 0.092419119030782 0.082201516799286 0.071456967249251 0.06022459098682 0.048368454917543 0.035803085273754 0.022693079061239 0.0090649099768948 -0.0051333270706952 -0.019829362159016 -0.035005602154448 -0.051062150236011 -0.068103781462557 -0.085942762124042 -0.10453075441381 -0.12403355510721 -0.14481295525891 -0.16696836895091 -0.19039003387439 -0.21479174868666 -0.24009969020889 -0.2663138416707 -0.19079395613566 -0.16051128554141 -0.1318401714898 -0.10478412882699 -0.079446360743915 -0.055838679998486 -0.033912622393523 -0.013571230783778 0.0052511667308974 0.02258555430851 0.038409441576129 0.052919906019008 0.066184587720689 0.078253507545111 0.089350408696553 0.099465714061873 0.10867999133786 0.11707096850545 0.12467500560375 0.13161043801233 0.13795980339329 0.14374046886771 0.14902730973955 0.15392397759254 0.15838547463974 0.1625153000161 0.16622890882119 0.16951678764515 0.17245246760823 0.17524727773474 0.17779527799176 0.18016198218629 0.18246918202167 0.18470254886985 0.18675630541697 0.18873317299838 0.19072150034274 0.19269556713118 0.19452230013275 0.1962477467761 0.19787290965176 0.19925090002366 0.2003354735615 0.20121934128222 0.20203001982304 0.20269530849242 0.20308001898553 0.20311785212604 0.2028706471521 0.20238572171693 0.20176856116881 0.20111149917165 0.20051596026745 0.20004144965523 0.19967762096807 0.19953730959092 0.19939346571766 0.19912496471944 0.19881190130972 0.19848374051782 0.19784312419661 0.19701781525375 0.19602789517948 0.19470326655431 0.19289339977898 0.19065221056052 0.18789719516465 0.18458909218927 0.18067323344343 0.17613697550584 0.17088759946404 0.16499069087999 0.15844184703234 0.15137474546754 0.14382956665434 0.13567977469501 0.12690396943918 0.11754348902126 0.10773622273746 0.097444451666459 0.086622616548374 0.075318375806316 0.063378652065393 0.05071819311165 0.037504167032911 0.023757890560594 0.00943538286813 -0.0053801428060385 -0.020686510621462 -0.036893649501386 -0.054098547569962 -0.072115185118501 -0.090888619909443 -0.11058873670619 -0.13159282490558 -0.15400202512684 -0.17770270510594 -0.20240774471101 -0.22802355050321 -0.25454479287116 -0.1787862909637 -0.14812694078274 -0.11911540918944 -0.091746999107927 -0.06613523413483 -0.042291352268062 -0.020152577830765 0.00037094681529134 0.019347193185896 0.036814501399094 0.05274680239818 0.067356805270909 0.080706923482604 0.092851740126726 0.10401993255867 0.11419341281944 0.12346380364706 0.13190377785828 0.13955961151411 0.1465351099644 0.1529251832741 0.15873768331182 0.16406034505903 0.16897378245008 0.17346823437361 0.17761976978903 0.18135254202803 0.18464828242559 0.18759723184452 0.19039360651785 0.19294204560604 0.19529672068828 0.1975967931486 0.19983376629674 0.20188519797086 0.20385940621631 0.20582988077052 0.20780362601812 0.20962523036587 0.21134161367599 0.21295449533892 0.21433037212639 0.21538920880571 0.21625866593028 0.21705221249622 0.21770819354247 0.2180990158119 0.21813895064903 0.21788266069759 0.2174053301902 0.21680390040978 0.21615795246076 0.21558226884817 0.21513747006735 0.2148050760389 0.21470659294572 0.21462384888175 0.21441042238212 0.21416891446086 0.21390601790143 0.21334143372886 0.21256944493803 0.21163471191264 0.21036222088975 0.20860049049504 0.20639743219178 0.20367300242446 0.20038516649099 0.19648206258301 0.19194269625487 0.18668743322992 0.18076427129715 0.17419425883766 0.16708562944007 0.15951007421874 0.15131617767789 0.1424913553611 0.13306453632771 0.12318402487477 0.11281731411016 0.10191751919672 0.090546104931789 0.078518719448655 0.065763580598359 0.052448037636204 0.038581920595293 0.024138834197156 0.009199590862382 -0.0062444609935483 -0.022602338877134 -0.039966810062578 -0.058163120609933 -0.077127290421009 -0.097026771826448 -0.11825867754771 -0.14092673142949 -0.16490863228343 -0.18992465459742 -0.21585272194699 -0.24268288159651 -0.16669480819383 -0.13565144993185 -0.10629406242442 -0.078607365478755 -0.052719794100353 -0.028635616092762 -0.006284476035945 0.014423594696261 0.03355362533074 0.051153913273378 0.067194488680495 0.081905421472518 0.095339638632259 0.10756190742551 0.11880107135403 0.12903663479601 0.13836272908014 0.1468481897167 0.15456039427763 0.16157663699011 0.16800513120037 0.17385265429546 0.17920871985459 0.18414765692281 0.18867443879431 0.19284678091595 0.19659896484374 0.19990183080018 0.20286832110343 0.20566083084933 0.20821730792317 0.2105572276314 0.21285250207549 0.21508885800374 0.21713995095862 0.21910375982862 0.22106547725381 0.22303839274652 0.22485167703971 0.22655780019427 0.22815886075881 0.22951968727706 0.23056750517972 0.23141934179176 0.23219394274404 0.23284014055956 0.23323251248939 0.23326955670081 0.23301386377606 0.23254266587934 0.23195275089153 0.23132438419481 0.23076570467189 0.23034163969271 0.23005583427976 0.2299969606816 0.22997017467034 0.22982297036753 0.22964738048536 0.22944379324395 0.22896939120096 0.22825196295164 0.22736915985389 0.22615921832742 0.22444210302873 0.22226800197059 0.21958918277463 0.21631424636238 0.21241789280232 0.20788473322433 0.20262102737655 0.19667149704091 0.19007852371245 0.18292920470361 0.17532618022679 0.16710203621029 0.15822215741725 0.14872052069536 0.13876339913314 0.1283198066072 0.11734532070485 0.10590732944897 0.093792197650881 0.080944741960856 0.067519496202066 0.053535822553874 0.038974110413793 0.023905677422369 0.0083272753175969 -0.0081811601633463 -0.025707588019478 -0.044088812970519 -0.063246372457942 -0.083350364843663 -0.104812488291 -0.12774186596398 -0.15200972514689 -0.17734305810965 -0.203584154234 -0.23072925873303 -0.15451844370354 -0.1230841609677 -0.093372711849585 -0.065365845508653 -0.039198396604563 -0.014870662716859 0.0076932641374533 0.028588351619326 0.047871706623591 0.065605594650668 0.081754819075249 0.096566560179594 0.11008352509548 0.12238586786276 0.13369238635218 0.14399524653671 0.15337360254796 0.16190672992886 0.16967756371406 0.17673788875151 0.1831999470972 0.18908656183604 0.19447828552538 0.19944175653667 0.20400120103375 0.20819420744281 0.21196571795906 0.21527527046629 0.21826105523678 0.22105185498514 0.22361600995231 0.22594457449543 0.22823469003014 0.23047027630412 0.23251731607878 0.23446891577886 0.23642621614211 0.23839539366891 0.24019860143513 0.24189499566611 0.24348407050601 0.24482638985235 0.2458607666675 0.24669954330523 0.24745184588954 0.24809162853993 0.24848685501437 0.24851542263992 0.24826203772888 0.24780039512597 0.24721989345924 0.24660716817817 0.24607041895475 0.24566939581875 0.24542719366128 0.24541137565236 0.24543623740739 0.24536269690658 0.24525142554732 0.24510857458944 0.24472027544099 0.24406320189189 0.24323602750433 0.24208878483538 0.24041622088094 0.23827568553046 0.23563781031925 0.23237591956806 0.22848885771406 0.22396710355986 0.21868924779977 0.21271041806653 0.20609543636158 0.19890836136307 0.19127544547955 0.18302276905726 0.17408473241625 0.16450742930245 0.15447496072555 0.14395655763732 0.1329126441361 0.12140143720912 0.10919701268663 0.096260766195823 0.082721372569071 0.06862618415396 0.053943985013736 0.038743690104331 0.023028785468477 0.0063672711091397 -0.011326707309071 -0.029894627879365 -0.049244431217481 -0.069556353967043 -0.091250880300435 -0.11444699399423 -0.13900770216248 -0.16466169672621 -0.1912202071887 -0.21868748228855 -0.14225766332126 -0.11042375254823 -0.080351326199097 -0.052021015003789 -0.025570416899397 -0.00099606665382862 0.021781932281591 0.042866252705783 0.062303939600357 0.080170409758201 0.09642838954094 0.11133890804785 0.12493948553827 0.13732231217953 0.14869587576914 0.15906705632457 0.16850155464268 0.1770827186027 0.18491028200986 0.19201817484065 0.19851495090706 0.20444043615107 0.20986817022223 0.21485736487703 0.21945027066896 0.22366470972891 0.2274534071973 0.2307765727873 0.2337804363735 0.23657435373952 0.23913705807164 0.24145740660437 0.24374665429117 0.24597578287499 0.24802136918379 0.24996995139699 0.25191136607787 0.25387159