# vtk DataFile Version 3.0
d-3__ created by libgimli-v1.5.0-1-g5991b6ac
ASCII
DATASET UNSTRUCTURED_GRID
POINTS 1483 double
3.3802423101098	12.435481574566	-0.57001420684378
3	12	-0.2857142857143
3.4959596309848	11.998298039034	0
3.2490070092203	12.168560129388	0
6.0395510135596	13.367156253372	-1.2757999763971
6.5930002103947	12.023472734859	-1.2922192071349
5.4998599382803	12.552571297657	-0.59337769664261
5.29662096318	11.932351047571	-1.5392209346082
5.6153020589615	9.1440579133635	-1.0774777831171
5.7237069713611	8.5589744845549	-0.30827017969781
5	9	-0.2857142857143
5.3151026533923	8.4249591108801	-0.38240156963578
2.3178923476779	4.1926464382665	0
2.5373292327812	4.4716333182052	-0.48281884804687
2.3342974478463	4.0018571812202	-0.30572640106363
1.9994701911036	4.4258543307655	0
4.8968211033092	12.507755029533	0
5	12	-0.2857142857143
5.2932790228536	12.494788035524	0
0	0	-0.2857142857143
0.54768630893449	0.55020446432687	-0.60775225926193
-0.16846798780902	-0.24002860812406	-0.65332445545953
-0.28063481777066	0.41453578455018	-0.44890469943706
7.7	3.575	0
7.3102059000399	3.7470939102263	0
7.7	3.6732286664853	-0.53772532608145
7.3176226410905	3.2857280588852	0
-0.7	-0.10798167686939	-0.47517111104905
-0.7	-0.57707899562378	-1.1376990549501
-0.7	-0.61986630133594	-0.43486724047509
6.3962361866998	10.611290418241	-1.3182185489848
6.565939673393	9.5694509864085	-0.57379796778735
7.1295911592009	10.496363016677	-0.48219980545192
6.3839624611364	10.341052129245	-0.35036617584397
7.7	14.3	-2.5
6.7623683783591	12.987112326146	-2.233077027779
7.7	13.059020885286	-3.3539705522597
7.7	13.327367479896	-2.129915020979
1	6	0
1	6	-0.2857142857143
0.93236760237426	6.49128333619	0
1.3454573625665	6.353105459937	0
2	5	-0.2857142857143
2.1684298754346	4.7403793023811	0
3.0226729813355	8.4836106439452	0
2.5164096947204	8.910651700233	-0.41109082170818
3.4071201441719	8.4167381876838	-0.59109415332551
2.5374808587914	8.1383747261781	-0.35604109466584
6.2778911301719	14.3	-0.61136458754231
6.2225356773765	13.691717475418	0
6.5208076177088	13.495118289851	-0.49928801204061
6.7358646795693	14.3	-0.39005656748015
5.7965188279432	13.281940723964	0
5.5320359851605	12.925291312368	0
5.353113789845	13.264183036004	0
5.5919457801018	13.101154188917	-0.33537516396337
7	10	-0.2857142857143
7	10	0
6.5010306427949	10.010760669106	0
6.8196744207924	9.5136576917357	0
7.7	1.1375	0
7.7	1.6430719769933	-0.42557297445049
7.1939383721229	1.4724531054162	0
7.7	1.625	0
6.3572581294301	1.4772201134971	-0.96507376287322
6.5574763981385	0.84898833643366	-0.48332647821142
6.7774291048203	1.7003141153393	-0.4123635555875
6.1433933962903	1.4220674799247	-0.28622251631329
-0.7	9.1984657118068	-1.9278839451739
0.33291529395702	8.3305676904572	-1.2970017952003
-0.7	8.1442617177323	-1.0898260028896
-0.7	7.644268062563	-2.0766032868031
4.508194357046	8.6258793740749	-0.60770874662543
5.0095189690676	8.5009469809039	0
4.7609249278557	8.7686419230913	0
6.2306672701993	2.67753718	0
6.6360398560532	2.4670661479797	-0.44686919005428
6.4910302172834	2.4939022421641	0
6.1550873755842	2.4572757142813	-0.33684154297057
1	1	0
1	1	-0.2857142857143
1.4901571161019	0.99574153349402	0
1.1736530561382	0.72346383359363	0
2	4	-0.2857142857143
2	4	0
1.6440539242474	4.1532454240512	0
7.7	6.9501255673919	-0.74418826283982
7	7	-0.2857142857143
6.7521552376889	6.497772044976	-0.66059363300197
7.7	6.3887218416049	-0.46884913673037
5.9482896260331	7.5800048202495	0
6	8	-0.2857142857143
6.3095291646476	7.6896230263426	0
6.1432247512519	7.3579252770212	-0.41388970597853
3.501272057481	12.437082442362	0
3.3297831413816	12.805427976196	0
3.6823393063421	12.851671876304	0
1.3671388209093	10.633374397873	-0.4152980605108
0.95248763025238	9.835503527633	-1.7808732395437
2.3518021577517	10.495200039554	-0.50930668321109
1.5373497846005	10.021005779616	-0.41781002197689
6.2054585007625	14.3	-1.3884356875417
6.9442913034148	14.3	-0.89278753613404
1	8	-0.2857142857143
0.54167473049383	7.7707286368021	-0.37916050195481
0.44975345341211	8.3808810318019	-0.31136669048163
1.022076618805	8.4121844676845	-0.45670843222423
0.89173681858685	4.6122796653579	0
1	5	-0.2857142857143
1.2386083631299	4.6841794176855	0
1.3923592539172	4.7130963353432	-0.25978315417498
6.4242299347383	5.6840176993625	-0.35514079575845
6	5	-0.2857142857143
6.3424541740313	5.2754910113697	0
6.0447933133998	5.5049876953384	0
5	2	0
5	2	-0.2857142857143
5.5190673049038	1.9208326821789	0
5.2306444928855	1.6547875838902	0
5	13	-0.2857142857143
5.257359886178	13.540476325965	-0.63012071696907
0	6	0
0	6	-0.2857142857143
0.066757795936057	6.5008369551487	0
0.29243888553297	6.1743316976873	0
7	9	-0.2857142857143
6.5033796411008	8.9981073418213	0
6.5607922823332	8.4440251373986	-0.63122800754088
6.811726958696	8.7028726276344	0
7	5	0
7	5	-0.2857142857143
6.4986646723997	4.9192017057136	0
6.7141996182955	5.3303468264748	0
7.7	9.5988491781319	-7.4736716195817
3.1507199964473	10.394874003632	-10
4.8663216648816	7.3792654266676	-10
5.1015502438684	11.553440122249	-6.405163284031
7	7	0
6.9589015254993	7.4884372736447	0
6.761634669635	7.2408783569561	0
6.0574437090791	0.20878539066113	-1.8779478182653
4.9838025543493	-1.3	-2.1179854334408
6.0308685444023	-1.3	-3.5425074203685
6.440522236286	-1.3	-2.0103523001383
3	2	0
3	2	-0.2857142857143
3.0105846506	1.4855923993349	0
2.6480485575569	1.6700894103009	0
5.0527203000088	13.535479310798	-1.5373151531841
5.0246691847863	14.3	-1.036131499603
4.1300067609037	14.3	-1.2024507502556
4.4744197407865	13.547407617085	-0.63586628370479
2.5813517996865	9.6286485974984	-1.0236151505326
2.2955236368793	9.5881134365907	-0.29154811067367
3	10	-0.2857142857143
6.4248505083522	12.522044346884	-0.42559946143008
6.465073985677	12.51782996062	0
6.1644652963082	12.36965297069	0
6.3832046574853	12.135664356038	0
2.9908655166747	12.498069465114	0
1.984703560175	7.5906357794687	-0.50777967523709
1.0508409188237	7.354634772545	-0.95680796450018
1.4515039911109	6.5829264157992	-0.56173008002516
1.3866216751759	7.5118935788728	-0.35488362790971
2.45	14.3	0
2.2168273415577	13.627179222019	0
2.4554693735383	13.497784276817	-0.39727655195048
3.032551925238	13.762466584345	0
6	11	-0.2857142857143
6	11	0
6.4843452951013	10.966514281357	0
6.2440599782187	11.234710090977	0
5.5	-0.5576923076923	0
5.247952850371	-0.29481663567353	0
5.5452342683804	-0.096294524539033	-0.49623355575102
5.1016398375367	-0.61489919294387	-0.38960315167385
2.3232496140345	4.0110297188843	-1.3835068702753
1.6586320571652	5.8268322896535	-1.5213554090482
0.71002746520551	3.976198472286	-1.505315421377
1.3296414347056	4.9089994064226	-0.82629172929831
5.6	14.3	0
4.6510156691765	14.3	-0.56274723813486
-0.090060726359069	5.5363033123106	-0.44581840212762
0	5	-0.2857142857143
-0.38456492153953	5.1805342841446	0
-0.7	5.0205501441189	-0.32507149572551
3	13	-0.2857142857143
5.1848675157348	3.2965660830064	0
5.4046165570399	2.9501485228537	-0.43988698776777
5.486289771732	3.4981838484395	0
5.4682750147717	3.0660382780841	0
0	8	0
0	8	-0.2857142857143
0.5178658825659	8.020802151125	0
0.25864598874121	7.6639427314904	0
6.7098208972434	7.2950601162224	-1.3269022195366
7.7	7.949747446039	-0.91833665053736
7.1577047253729	7.4844276204668	-0.64272934527953
4.5892004575887	3.5369189576522	-0.55981654583505
4.4420188491858	3.4660037233365	0
4.711527897636	3.7375259681419	0
4.3494632088922	3.8023533541114	0
4	6	-0.2857142857143
4	6	0
3.9913416390327	5.4988534517732	0
4.5093195747582	5.724109532591	0
1.4	14.3	0
1.5	13.55769230769	0
0.89284349994875	13.714781914708	0
1.2292962491126	13.670420041977	-0.37788942865261
4	9	-0.2857142857143
4	9	0
4.5502440226935	9.051086551406	0
4.2963154051231	9.3907765114078	0
4.5321110402369	7.5028925212181	-0.60552533206341
3.5085861108931	7.3893844432383	-0.64873189634878
4.0050480592533	7.4977657988521	0
4	8	-0.2857142857143
5.8961095330637	-1.3	-1.0125722125019
4.8982045728458	-1.3	-0.82217786726149
5.2296982103621	-0.31621891710017	-1.0679345669244
4.9010483556055	1.478997710586	0
4.5631533182214	1.9074133665015	-0.41231302454656
5.0320642355688	1.4518180616801	-0.36509190625555
3.5357179442866	0.46434418042464	-0.60031716899974
3.9407498163335	-0.4411178910574	-1.1087857494349
3.2826824657074	-0.47747544834602	-0.50866572047373
2.802260468126	-0.22902113419037	-1.4542342115515
1	13	0
1	13	-0.2857142857143
1.1191337005982	13.329221525091	0
1.4884720276527	13.02962190928	0
-0.21681247778723	8.5792000107362	0
-0.35118339610893	9.0917088673227	0
-0.7	9.0968147603684	-0.35256881313688
-0.7	8.9375	0
0.51662331659314	-0.40156299802931	-0.67799391089861
0.13474046208011	-1.3	-0.85683826964205
-0.16941603187845	-0.57512411281067	-1.4019543009948
6	13	-0.2857142857143
6	13	0
5.8068477026831	12.499749736815	0
6.1890713266052	12.67695534294	0
2.5984255358496	5.4578875982232	-0.67264342113488
2.2172109403706	5.4325217687574	0
2.4824672258873	4.9705265694472	0
2.6598112065826	5.3330483814808	0
-0.7	0.5146532048839	-0.51418317722913
-0.7	1.0492756199945	-0.88024243711367
-0.37698118088761	0.89350663208132	-0.33360419980628
-0.25096134668857	0.95145340086689	-0.90448711690516
6	2	-0.2857142857143
5.4002158317804	1.7678073061348	-0.50898482673054
5.8183999242367	2.5164331321023	-1.0840550371572
-0.13917028340788	5.5182991349521	0
0.31578338747353	5.7567158690792	0
6	12	0
6	12	-0.2857142857143
5.513035862904	11.994753403328	0
1.5285536174902	4.2362319729344	-0.43851980589517
0.57100063419133	12.499134596467	-0.56842257570583
1.2565986295401	13.42724014175	-1.149557674079
1.4486633887383	12.69302170761	-0.31714242590465
6.65	-1.3	0
6.903739311401	-1.3	-1.0953527719967
6.3980205255852	-0.38130956989248	-0.5855507841991
7.2175457166608	-0.5710098692386	-0.51938212652516
3	7	-0.2857142857143
3.5055774955602	6.7395375676091	-1.4094768265058
2.383927159844	7.4535505157878	-1.0620490471275
1	4	-0.2857142857143
1	4	0
1.2222221827385	4.2954008280594	0
0.82345085295407	4.2815033897546	0
5.6	-1.3	0
5.790373644402	-0.65252487431205	-0.38521635467031
[...]
CELL_DATA 5483
SCALARS Coverage double 1
LOOKUP_TABLE default
1.4925751201546 0.73794329609176 1.3970927659004 1.5660844200604 1.4338781312424 0.86622025188722 1.1267943539139 0.65818785841614 1.1057833402895 0.20350275560195 1.8314110616904 1.6562027639896 1.4936779692634 0.71798325358141 1.2380741346735 1.783204106748 0.96880649454422 1.1353123690207 0.6408741175161 1.6454856127236 1.4286545828266 1.6943464311431 1.8833550036811 1.0594762717674 1.5858758645477 1.3817733718287 1.2420780365184 0.57925081487791 1.3662741376948 1.6398831045548 1.5577817673273 1.7453329743506 1.1977017266388 1.7715852052571 1.4747135605463 1.7620265457701 -0.39558166528443 1.7957212063402 0.26519278281941 1.7684920943661 0.61782197162545 1.3733575711992 1.3806914067222 1.453379260959 1.2923472226549 0.88764048873537 1.8153313346605 1.0251738724958 0.94145984343363 0.56364698485101 0.68858560640174 1.2733163979786 1.3688340181192 1.5149235585091 1.7427702229267 0.9487165167963 1.4889489481114 1.8564898983762 0.85552373332664 1.8275818271655 1.5159227401283 0.62231340032383 1.4183511986758 1.514688102075 0.72434894512158 1.5715769973912 1.1826843519375 0.62852602952929 1.7010175917984 1.5693191120856 0.81766420214576 1.0825881746224 1.7667639632965 1.6802340092147 1.5291944540787 1.0302353101492 0.6147931177822 1.2699341730137 1.9177943487732 0.63407592321073 1.1486021468387 0.79338249262958 1.5088516933741 1.2086960664116 1.4900575928547 0.98434380908512 0.60768651198762 1.8411120347581 1.7626945398135 1.5509734108553 1.1717529278323 1.2250539272447 1.2663162822538 1.209268304583 1.4562059081086 1.6152812877537 1.5808321886536 0.96945262115025 1.6366268404693 1.6688816908925 1.2916226151799 1.7926281119502 0.95553500949595 1.5848915569023 1.1120928928341 1.5480321594107 0.31199089964992 1.1261103981629 1.7989793535103 1.876570787667 1.6872808561114 1.2828212683619 1.4721694060331 1.4648955126563 1.1533681276944 0.74311553201181 0.94189976811098 1.0105261744715 1.5569933319009 1.1907564098688 0.94892861953814 1.608793678537 1.2416859026476 0.41916186381594 1.2607190884192 1.7765608933113 1.0564078816462 1.7965598431141 1.3181229031473 1.5301609931756 1.4896362370746 -0.20252115220121 1.0563431818377 1.4086761815559 0.80720440708839 1.5854249316999 -0.3972757147244 1.3451886002144 1.333245822078 1.8548550271445 0.55361192860737 0.16196761907654 1.7811722272119 1.6749826060868 1.5023163200201 1.4193012878104 0.90673215198017 0.69100900846165 0.92830872774573 0.59128902048284 0.36866285875263 1.8532543141096 0.80924316875346 1.2193275012505 1.388590483743 1.6242028958286 1.4774901999773 1.0471491750694 1.7234440137174 0.77482652367978 1.4223689928429 0.74762764384103 1.0197209799569 1.5811820685171 1.8614243314057 1.6478863835816 0.59789733882731 1.8078063205872 1.4315740920268 1.7941869167242 1.5858103348654 1.1748337641919 1.2789546026741 1.8247935375313 -0.075646301466254 1.8610051065957 1.9076647513589 1.7581457580593 1.6845320774808 0.17124031679452 1.546211611561 0.4098225046602 1.1087964881799 -0.079174042133924 1.2092559781765 1.8611551558553 1.3921200653356 1.5610454400268 1.8179758649056 1.322374660028 1.8567391004368 1.3255278315839 0.73323727473659 1.5983320925259 1.272938811336 1.0670646315176 1.6254711036021 1.5328614901108 1.3920545382515 1.8470772180419 0.54769697861085 1.9130455905213 1.4670792808054 1.4928509691143 1.9194020773862 1.6556299434593 1.698037100363 1.4678640104425 1.070214083869 -0.43217388698123 1.3743140906301 1.067197761012 1.1716371713667 1.8842181806315 1.8536545947564 1.8656656626761 1.8356825683272 1.5918911196155 0.85831451020701 0.85637547556726 1.3629045184971 1.7279500097144 0.56568868437999 1.8734436507212 0.72100470631942 1.6646233412595 1.5572652163114 0.85050535914791 1.9180405104687 1.1415446709489 0.91450824539849 0.87630819524084 -0.14268275048703 1.8536030369744 1.4561012034542 1.167796041456 0.58021092952677 1.7408187106724 1.6872830275356 1.5320547041409 1.7597633922667 0.70225292122241 1.583002752259 0.95731464973285 1.5713082808903 1.8323620648129 1.3141647793049 1.5266357822443 0.52776989836281 1.6065390572612 0.68508028783722 1.6680990723505 0.4753297131239 0.21204760855352 0.011591745930115 0.45231193877211 0.8747186994896 1.8573606977938 1.307043377169 1.8649841295604 1.0536362356327 1.0679110943954 1.5259909882896 1.3472854486062 1.7856414628448 1.8283237978814 1.4513709866055 1.8569627614724 1.5350015537599 0.73555019311664 1.853846786011 1.8837375372951 1.5571944887821 1.4216586005487 1.8413931467208 1.5549300938518 1.852982133362 1.5764729101514 1.5760528024669 1.7171965634246 1.6416641377433 1.9336370402845 1.4323445087943 0.53253384391364 0.50821193120497 1.261635739525 0.96304024706907 1.56759011738 1.7424511765292 1.2915265197508 1.5300301599528 1.8339016264543 1.7102159588234 0.57030457364345 1.4616952778398 1.6873960701546 0.72031895735696 0.29855258632316 0.84037040649752 0.50548580641781 0.45404513321906 1.5656389104732 1.4043301045566 1.0492764055249 0.81277115265653 1.1045676646858 1.621994064817 1.3012747134036 1.5305402112615 1.1051711221925 0.73417569066468 1.5826266049531 1.2749756294044 1.2548538928518 0.63514269594181 1.1569381205394 1.5158724668388 1.0830769184441 1.4399089639949 1.1582599996735 1.8158341338709 1.5500176826248 1.5309791682812 1.4148008891457 1.908974534294 1.2611071769212 1.6808550834524 1.5494167977816 0.46777043618944 -0.61903720919082 1.625109578448 1.1983803340773 0.72753752799321 1.5360740684025 1.487846235278 1.7992022706342 1.8735864847504 0.96166937695425 -0.58607043877895 0.84733829637905 1.40415181156 1.2280581637334 -0.24852424322465 1.0701456687468 1.0451943751459 1.4121388125918 0.92603716292982 1.5554695436366 1.3627077246571 1.2424949725088 1.5204569590161 1.7121160404852 1.7805061695803 0.59879718474451 1.8748774942446 0.99350294786627 0.12673969843091 1.3053697012995 1.7418836672594 0.49775498757058 1.29795468772 1.3716434513515 0.7251308165362 1.3734860353124 1.7300480963504 1.4708523246646 0.87552870366566 1.7578678004992 1.6645872328273 1.2503588697794 1.3170393996898 0.96594296447341 1.4959818860786 0.27836278879727 0.57856205280897 1.1443703597976 1.2862347515567 1.5189686133903 0.76275566688372 0.36764453625157 1.8118985686456 1.8784666025339 1.8951291946104 1.6007944121694 1.3509004488096 1.8646093318342 1.8176913898253 0.57761731627091 0.83351387582469 1.517971436881 0.9884012981548 -0.2269636932638 1.5830574691515 1.4120469473377 1.4027129476437 1.578499039773 1.6147948767016 1.4606145839448 1.4522848857123 1.5671753690683 1.0767355641216 0.83620468303293 0.85544373793596 1.7435328038081 1.9366658682719 1.2338990651686 1.3476654235969 1.7044034389249 1.8421813602331 1.2728765642904 1.4909972395394 1.5067787689405 0.65613711899774 1.8254104335803 1.4072397574888 1.4378965514483 0.95665174412891 1.5514124468921 1.8258321157369 -0.36909539018347 1.5680019005625 1.5127780440602 0.51813014214037 1.3985883044903 1.345580255777 1.0390771554411 0.19784646834718 0.13270384269283 1.5873113001686 0.29854981838569 1.6748397205949 1.3003694005557 1.8045691934508 0.88582695981581 1.7346311141478 1.4352664567848 1.7330457575346 1.8118758653689 1.3970723009268 1.1920292396211 1.4188199026485 1.5613518840526 1.2718979788908 1.7384967440992 1.8304044067726 1.5565393833103 1.1348578040045 1.2728893041049 1.1916426247127 1.2319711050318 0.92464323806246 0.69213287093715 1.4450829543494 1.5180404543588 1.7706032108144 1.4672416231231 1.8797181742709 1.4215605218474 1.6852532400369 1.4861013652688 1.8835994046954 1.2972959501835 0.9859096430266 1.591491318359 1.9265978508062 1.5122867203208 0.87841961033119 1.3385665682289 -0.26034357833731 1.8347820322747 0.44994904891089 1.8022329979426 1.4757609116163 0.2384681850343 1.5635670841754 1.3035551714982 1.0620041055932 1.4896091227811 1.7063283198607 1.8437257541102 1.427820514569 1.4675539007174 1.7916459618924 1.6248631752543 1.3698134146192 0.7140146733849 1.5982010113704 1.5656749404378 1.5255777012786 0.6569257238113 0.47059641357837 1.4383770778196 1.2232451972313 1.4958093884291 0.82990000278479 1.8381205617621 1.5806534752933 0.81204294169507 1.9229051189906 1.4120746383874 1.0515171022572 0.62915101998257 0.82953997577128 0.97677585348397 0.52276293787236 1.6857342359021 1.5980183719663 -0.032331463828714 1.3368801454353 1.1521950891873 1.4446982695549 1.3365263001502 1.5304654789799 1.5071049892615 1.7908000581485 1.0344325218937 1.594791053843 0.75323905471506 1.0686341637342 1.3752100334597 1.6021842893143 1.0891629971869 1.7782829462585 1.6159887276848 1.3133218308074 1.5863780067381 1.4267477409181 1.659382545645 1.5619515894384 1.6129077934545 1.5799457711732 0.40379479575161 1.3086518129139 1.4264168910321 1.825767755966 0.76547113796729 1.7907058759321 0.79199112681468 0.88750597417178 1.3294120668186 1.7964320802259 0.86495079177026 -0.68741565733302 1.3426432447614 1.5383417499733 1.2632677369095 1.6832555904482 1.4604721904996 0.65273605670934 0.81166362804942 1.8349390774502 0.93365806421473 1.5833308519112 0.8345069139591 0.62125901599718 1.3538511840545 0.56700542328267 1.5624528240648 1.597749667685 1.5188419426676 0.047182713548477 1.1108885657623 1.6811954394441 1.196502669969 1.525797127086 1.4189290401989 1.3792284194145 1.4329721552643 1.061960099966 1.5863068756657 1.5504443303682 1.0245529616861 1.0781100726039 0.25147970417468 1.8986889434064 0.91083759885826 0.33350932106125 1.7366030802598 1.330578952466 1.6215269195232 1.6942350842306 1.669545318759 0.64036391550959 0.85091206358588 1.5782534431699 1.3741445068696 1.6487212664885 1.1402869962331 1.4864401014089 0.77149569384343 1.0477361615545 0.86153829358691 1.5040190794628 1.2380561996025 0.66904653985711 1.8648779517191 1.6456452208898 -0.56303355522292 0.12230412223725 0.88466270059834 1.6558655030291 1.7336026281244 1.5420965264677 1.8375158729307 1.0893481417794 1.4393667117033 0.60853748706524 1.6680239179966 0.35090896070915 1.8608543585876 1.0969912068688 1.5541460977516 0.89571793965643 1.6037364956138 1.493139723019 1.3415067494183 1.4182840330198 0.34757578872268 1.8538576986892 1.1421396885662 1.499403317172 0.44562260314088 1.4576868755016 1.5703290031728 0.94884918345831 1.3480216031481 0.87063248086611 1.6825548680345 1.0852139008375 1.462698908677 1.3792408585397 1.2569080873014 1.8580904438444 0.68585157164268 0.40162796704337 -0.53825426187545 1.7729982734458 1.1126966052687 1.0502512572486 0.75470204271606 1.8115701889986 -0.22539737270761 1.6123620010958 1.5769722259601 1.0868591904263 1.0327458746632 1.7823323093315 1.8707249689335 1.4508958518051 1.5208904772323 1.7858019978531 1.6968308898874 1.8400647282003 0.73177034453984 1.3907938499359 1.8430084225067 2.034940701171 0.68830880020764 1.4457236486042 1.3534305447866 1.4586027944036 1.5821774732717 1.603334876309 0.61297361145236 1.7321782301646 0.69251244208083 1.1258803967232 1.4632910160765 1.9168376413291 1.1090258007721 1.4031596148871 0.1110263680932 1.6687929130045 1.6521381357236 1.1782513210062 0.26928746455817 1.3848478218365 0.7047927737027 1.6602460528182 1.1601428311183 1.5165048566607 -0.35330062313974 1.500120854506 0.68008808224864 0.76208491578448 1.8499671329436 1.2670023755769 1.3016275143513 1.5329885927888 0.45636831474083 1.8642835747264 1.8336365061643 1.508976317902 1.8191206860807 0.64643795918804 1.4053929064784 1.7080934837592 1.5175952212472 1.0495231464813 1.7859741725052 0.50095370612599 1.2615722066654 1.3781968945911 1.1728647430982 0.79430739302932 1.7693878799189 1.5504426314848 1.3684308961889 1.3664285280128 0.69398853916403 1.3929307308478 -0.42639715286456 1.5774531893279 1.0031135330609 -0.2791255762311 0.24200428198443 1.5412599980887 1.7643086928383 1.3595011210964 1.3696910560397 1.8739811027784 1.5245556628005 1.0653090779104 1.6178140630496 0.91113313333142 1.1795593753482 1.4664703923473 0.96270979212205 0.34420355166438 1.3378382769235 1.4404550664147 1.8470800052543 0.74879326956717 1.6640456024731 1.5234301947849 1.4524810843353 1.5642446009297 1.584415326167 0.18639352746604 1.0314127682612 1.4047271234863 1.0256328264155 1.2347537513741 1.12523710783 1.7588962103244 1.0445966999464 1.2413232584661 1.4504741847416 1.7852990025606 1.7316904748939 1.7361492474812 0.62948474070997 1.857622259781 1.4674110195022 0.74647310182708 1.1810488111175 1.4845273644663 1.5833674546275 1.1029256454413 0.83076205014722 1.4353468582866 1.564126813541 1.9191130822224 1.4244551323892 1.3000555381291 0.78818655799663 1.3993603970316 1.5695815956201 1.57320026042 1.8191275290269 1.4014323912909 1.5381449190139 1.1258026115945 1.5340432938091 1.589018825695 0.82118413131984 1.8963622993424 1.3830285071806 0.56060315328686 1.5921166169121 0.87092484278079 1.5112482416752 1.207356668412 1.7217395578735 1.1913238671838 1.2023766967798 1.5606379399657 1.1350886639813 1.6497899310299 1.8478471205522 1.3233950344472 1.6381659837902 1.4548227895053 0.46881601056092 1.0086626588996 1.7813878776064 1.7181138456303 0.14218118133875 1.5855444974593 -0.57453339183255 1.3842634645992 1.7170142574572 1.2958886155623 0.60584460388893 1.7625770528135 -0.70397512473689 1.7288522638883 1.3189344171346 1.4290313249098 0.72144322254145 1.162217396253 1.3763357587639 1.0304304460252 1.4597904861415 1.0716489009771 1.7117135484568 0.77206080080515 1.4155074390279 1.4967032559864 1.1997833797811 1.3244236257919 1.5788922280741 1.5678400022434 1.4550054254373 1.0909009392137 0.61689048140021 0.74725919229663 0.62484027532024 1.5276145865781 1.5681915817265 1.5820261606 1.0663624982882 1.6587388399613 1.5398627079333 1.0901774508271 1.5852397891338 1.4343190339833 1.5948258486621 0.49280804592892 0.95613213426732 1.5989024660403 1.2591488876326 0.93944545805205 1.2970009962124 1.3381943963757 1.0534829029857 1.2700040397744 1.526019623482 1.4997431894276 1.1957264069501 1.8555154628456 1.8175720331785 1.0745098717986 1.3387671042828 0.72003447417688 1.3333318682296 0.66371105229482 1.6392978402272 -0.22731039405879 0.66824552803836 1.5259504290869 -0.29132178073555 1.6577160280932 0.69794611402254 1.2840485736728 1.30208741232 1.4230117309604 0.81375382826365 1.3982886944993 0.46159276116284 1.2381043315667 1.560501842106 1.2615570787371 1.5419908072289 1.5308601269586 0.96345778158251 0.79161581462911 0.42578464403965 0.77968312742679 0.54323162349745 1.848724384198 0.43878392390284 0.91640954470472 1.5181377180761 1.2904247695978 1.5956324673858 1.7641649206479 1.5526504463165 1.5948821760357 1.2278778952559 1.3858484927531 1.5062421573547 1.5280586542211 1.6816538456356 0.54577472946043 1.5679140874587 1.5764793272335 1.1625440611231 1.1380741970514 1.6517289719361 1.8976170687826 1.5994001465418 1.7130422868305 0.65688265901582 1.230428802144 1.800493790881 1.5861333791017 1.287710329076 1.6605192965778 1.0166716200725 1.3658167505024 0.40499839436615 1.7295360186963 1.2923349826635 0.67206219777342 1.4563797564846 1.5144933837361 1.4039072305632 -0.17720479746543 1.2702496414544 1.5713770800568 1.8576560446942 0.31112973379137 1.7637951548861 0.80150038485471 0.20846336932905 1.2019804002253 -0.47269752106956 1.7002075102461 1.9070339914587 1.4109637496119 0.99083691002845 1.5168524917628 1.7498820541604 0.3813631817956 1.5728282801006 1.4774991234731 0.20409521490098 1.433653765137 1.3426153959851 1.6348673585375 0.94772008832705 0.52436811420075 1.4309429499254 0.61442707911615 1.2552660105372 1.8653284590963 1.3470503920029 1.4925535920818 1.3130659879559 1.6121490133275 0.32669862355434 0.385915175722 0.96763342265118 2.0031530162037 1.1202162067257 0.61374370032817 1.5225503367163 1.5657415690824 1.0501694953725 1.349775808765 1.2334165870465 1.3349667684229 1.5711366133196 1.4753743261045 0.73336961572264 1.2845411384316 1.3263959835161 1.6046886793791 1.875954412282 0.59357417348326 0.8646451010572 0.47322974368644 1.5069124073584 1.3093831949359 0.79756926741602 0.98149559085959 1.7645592267779 0.49199224746898 1.1787745189063 1.0537010313375 1.2732965805 1.7366896889729 1.2318616734265 1.1546693300683 1.7788989926675 1.8739099746288 1.5245470441094 1.7259475568843 1.5976300507639 1.2298509484188 0.78561468331269 0.73984331987024 1.483226491911 1.0505703414849 1.1756051667586 1.4832597822811 0.75546730624754 1.6382772648093 -0.1692549567322 1.7981740693393 1.5999967310557 1.3485235172327 0.5233414561031 0.60345435123045 1.7480249446793 -0.030775679078017 1.1399635048252 1.2826501508951 0.59776414228072 1.1455223599381 1.8439802727492 1.7963320974887 1.4941492159554 0.66030878475519 1.7002985178853 1.7339781698083 0.31314892981502 0.90294577213279 1.6305554493181 1.005860165336 1.5471400120409 1.5399189349813 0.93297049285655 1.3660174630091 1.2237945427859 0.74967045311146 0.63680936101253 0.61285016780626 1.7770397861501 1.8374299647787 2.4704186622856 1.557317152884 0.87241003944051 1.3635884172504 1.4825884037368 0.92742065819198 1.5029240097089 1.6992781955584 0.48992328386623 1.7371835245079 0.86540031634826 1.7337925341848 1.5386150342067 0.74712513133599 1.2110924772418 1.502456857313 1.3913616940013 1.2317777719922 0.88300928959179 1.6327694047076 1.8032006882184 0.84660918223804 1.6867780161176 1.7392136314385 0.45966974145141 1.9731632491422 1.4089876906591 1.1742255880846 1.1302887032185 1.1140409059654 1.5653372514243 1.4693837732061 1.7031508353501 0.87169420149359 1.7827556639706 1.2780254311997 1.4255772127282 1.3160870184054 1.0274509093004 0.64507966098593 1.8851072618291 1.8256473302201 1.4290870621653 1.9104418050674 1.0451605194823 1.0261275165449 1.517514879587 1.4869510048845 1.3592057473642 1.3523400119388 1.4942089263968 1.0429202533444 1.8049574373465 1.8478031746527 1.3984775895393 1.061532948122 0.79832428562521 1.4059348772296 1.252688879239 0.31032417834565 1.5540490436323 1.7101784402722 1.2820474922137 1.8572846335261 1.3422163434113 1.0547234576407 1.8694048075194 1.5103895541001 0.61105044988004 0.72438227401919 1.2778294676739 1.8267712344887 1.1703619755698 1.0538582224066 1.5147827050441 1.3046124227313 1.709172102406 1.5831845636713 1.21039211665 1.3282257231675 1.7097716618009 0.87324685386159 1.5901608270093 1.6284479100037 1.8716713052355 1.4783990635157 1.2762387013147 1.7663719291825 1.7402604273716 1.8013819814188 1.5069245691459 1.4485447686497 1.4807271434522 1.5864265135983 1.4631821539348 0.92509826684534 0.014556752368769 0.8771401296495 0.78257346303365 0.77092963561749 1.5717973158239 1.2497476839345 1.7631885815398 1.2403224387743 1.5200195069902 1.2592179535587 0.59869473193013 1.7598036925618 1.5365574438073 1.6222596772777 -0.3944596303021 1.8405539172226 1.6018116873819 1.025487418042 1.8242599120406 1.1821444237946 0.95217507790305 1.7619940542988 1.2823005083629 0.5863318159328 1.4480576167355 1.1844479198666 1.0894053341763 1.7769185215022 0.93770990845697 1.6012482265899 1.312457018733 1.3263433040124 0.9689705358971 1.7686558642193 0.21752630506838 0.68643624295364 -0.51903790501508 1.3750819402236 1.415357316685 0.78316897943358 1.0546942494762 1.5811557752954 1.6568763095519 1.3972001653498 1.6137803459799 0.87671522816581 0.85121681986395 1.8202787737576 1.740168641765 1.4830473937796 1.5724926223107 1.4537891883607 1.4106651615291 0.58969424042624 1.3734043356318 1.6654369715727 -0.17068740300514 1.3276602687948 1.8701121515588 1.4261832637634 1.4048476696445 1.2378071167586 0.86287163742688 0.4521524598016 1.5385585587953 0.74509121776596 1.3695766302414 1.3876484859917 1.5444587233592 1.6054065033312 1.7780660653403 1.814102044112 0.29727665179669 1.4594537419404 1.0951495502482 0.42863568534854 1.8043279083213 -0.49297523263898 0.57123175398274 1.2764062743543 1.7085151923482 0.8829519746091 1.4849063173288 0.54757731251786 1.4211975261917 1.0202175117568 1.3140616104911 0.96164118456602 1.0176345954161 1.8753932730226 1.4559884566846 0.73078458756911 -0.10384358419985 1.061200882364 1.3102500669825 1.5487796402811 1.5009002424697 0.95358075967177 1.8322430158538 1.3257472933645 1.4906226811222 1.440327962662 0.73707706915833 1.5528727451718 1.50814